LAMMPS (12 Oct 2011)
Scanning data file ...
  4 = max bonds/atom
  6 = max angles/atom
Reading data file ...
  orthogonal box = (0.004 -0.505 -0.907) to (1.495 1.065 0.907)
  1 by 1 by 1 processor grid
  5 atoms
  4 bonds
  6 angles
Finding 1-2 1-3 1-4 neighbors ...
  4 = max # of 1-2 neighbors
  3 = max # of 1-3 neighbors
  3 = max # of 1-4 neighbors
  4 = max # of special neighbors
WARNING: No fixes defined, atoms won't move (verlet.cpp:52)
Setting up run ...
Memory usage per processor = 16.7649 Mbytes
---------------- Step        0 ----- CPU =      0.0000 (sec) ----------------
PotEng   = 5.600316533656049e+00 E_bond   = 4.082087225461667e+00 E_angle  = 1.518229308194382e+00 
E_dihed  = 0.000000000000000e+00 E_impro  = 0.000000000000000e+00 E_vdwl   = 0.000000000000000e+00 
E_coul   = 0.000000000000000e+00 
Loop time of 1.90735e-06 on 1 procs for 0 steps with 5 atoms

Pair  time (%) = 0 (0)
Bond  time (%) = 0 (0)
Neigh time (%) = 0 (0)
Comm  time (%) = 0 (0)
Outpt time (%) = 0 (0)
Other time (%) = 1.90735e-06 (100)

Nlocal:    5 ave 5 max 5 min
Histogram: 1 0 0 0 0 0 0 0 0 0
Nghost:    0 ave 0 max 0 min
Histogram: 1 0 0 0 0 0 0 0 0 0
Neighs:    0 ave 0 max 0 min
Histogram: 1 0 0 0 0 0 0 0 0 0

Total # of neighbors = 0
Ave neighs/atom = 0
Ave special neighs/atom = 4
Neighbor list builds = 0
Dangerous builds = 0
ITEM: TIMESTEP
0
ITEM: NUMBER OF ATOMS
5
ITEM: BOX BOUNDS ss ss ss
0.0039 1.4951
-0.5051 1.0651
-0.9071 0.9071
ITEM: ATOMS id fx fy fz 
    1 -1.067053690997134e+02 5.168659556596893e-01 0.000000000000000e+00 
    2 1.338718579513792e+01 1.488306121421298e+01 0.000000000000000e+00 
    3 6.482833915795173e+01 9.127072903342577e-01 0.000000000000000e+00 
    4 1.424492207331188e+01 -8.156317230103463e+00 -1.405125682551871e+01 
    5 1.424492207331188e+01 -8.156317230103463e+00 1.405125682551871e+01 
