ITEM: TIMESTEP
0
ITEM: NUMBER OF ATOMS
10
ITEM: BOX BOUNDS ss ss ss
-1.2111 4.2801
-0.5161 1.0541
-0.9071 0.9071
ITEM: ATOMS id fx fy fz 
    1 -1.079106248822774e+02 5.258876508881656e-01 0.000000000000000e+00 
    2 1.343599785283235e+01 1.487094800678419e+01 0.000000000000000e+00 
    3 6.483860951002708e+01 9.127554217670144e-01 0.000000000000000e+00 
    4 1.429007696919376e+01 -8.151067453133873e+00 -1.404222992266366e+01 
    5 1.429007696919376e+01 -8.151067453133873e+00 1.404222992266366e+01 
    6 -1.067241382888578e+02 5.165355319405514e-01 0.000000000000000e+00 
    7 1.335409066682821e+01 1.487445815963627e+01 0.000000000000000e+00 
    8 6.600018468972381e+01 9.060442581060846e-01 0.000000000000000e+00 
    9 1.421286325666809e+01 -8.152247061427264e+00 -1.404411612893463e+01 
   10 1.421286325666809e+01 -8.152247061427264e+00 1.404411612893463e+01 
