ITEM: TIMESTEP
0
ITEM: NUMBER OF ATOMS
5
ITEM: BOX BOUNDS ss ss ss
0.0039 1.4951
-0.5051 1.0651
-0.9071 0.9071
ITEM: ATOMS id fx fy fz 
    1 -1.067053690997134e+02 5.168659556596893e-01 0.000000000000000e+00 
    2 1.338718579513792e+01 1.488306121421298e+01 0.000000000000000e+00 
    3 6.482833915795173e+01 9.127072903342577e-01 0.000000000000000e+00 
    4 1.424492207331188e+01 -8.156317230103463e+00 -1.405125682551871e+01 
    5 1.424492207331188e+01 -8.156317230103463e+00 1.405125682551871e+01 
