LAMMPS (12 Oct 2011)
Scanning data file ...
  4 = max bonds/atom
  6 = max angles/atom
  19 = max dihedrals/atom
Reading data file ...
  orthogonal box = (1.725 -27.508 -8.252) to (5.535 4.819 0.542)
  1 by 1 by 1 processor grid
  129 atoms
  134 bonds
  247 angles
  570 dihedrals
Finding 1-2 1-3 1-4 neighbors ...
  4 = max # of 1-2 neighbors
  7 = max # of 1-3 neighbors
  18 = max # of 1-4 neighbors
  21 = max # of special neighbors
129 atoms in group glc6mer
WARNING: No fixes defined, atoms won't move (verlet.cpp:52)
Setting up run ...
Memory usage per processor = 0.65572 Mbytes
---------------- Step        0 ----- CPU =      0.0000 (sec) ----------------
PotEng   = 6.234557523391629e+02 E_bond   = 1.117454366824904e+01 E_angle  = 1.665089951502929e+01 
E_dihed  = 1.887918813168129e+02 E_impro  = 0.000000000000000e+00 E_vdwl   = 1.273061273145771e+01 
E_coul   = 3.941078151076140e+02 
Loop time of 1.90735e-06 on 1 procs for 0 steps with 129 atoms

Pair  time (%) = 0 (0)
Bond  time (%) = 0 (0)
Neigh time (%) = 0 (0)
Comm  time (%) = 0 (0)
Outpt time (%) = 0 (0)
Other time (%) = 1.90735e-06 (100)

Nlocal:    129 ave 129 max 129 min
Histogram: 1 0 0 0 0 0 0 0 0 0
Nghost:    0 ave 0 max 0 min
Histogram: 1 0 0 0 0 0 0 0 0 0
Neighs:    7497 ave 7497 max 7497 min
Histogram: 1 0 0 0 0 0 0 0 0 0

Total # of neighbors = 7497
Ave neighs/atom = 58.1163
Ave special neighs/atom = 11.7674
Neighbor list builds = 0
Dangerous builds = 0
