ITEM: TIMESTEP
0
ITEM: NUMBER OF ATOMS
129
ITEM: BOX BOUNDS ss ss ss
0.5879 6.6101
-27.3281 4.3001
-7.9301 -0.1339
ITEM: ATOMS id fx fy fz 
    1 -6.322198728329409e+01 2.431622348674469e+01 -3.533678886007247e+01 
    2 3.135289582109939e+01 -7.014554488111023e+00 3.336097831656425e+00 
    3 9.624501009000483e+00 1.625138308848641e+00 4.461413403414372e+00 
    4 -5.688577222443395e+00 -4.323117362957863e+00 -7.778041999226821e+00 
    5 1.362069294309129e+01 -3.825111149839013e+01 -5.472737193774898e+01 
    6 -2.190090873359522e+01 6.245538090852124e+00 -3.998461306870333e+00 
    7 1.188474415806909e+01 1.734448169437743e+01 7.584930072745948e+01 
    8 -8.445202378727933e+00 5.193104264803597e+00 -3.086887293317100e+01 
    9 1.847249089952905e+01 -3.354821776420371e+00 9.714047555814734e+00 
   10 9.191375675196062e+00 5.147444323005764e+01 -9.674050046484226e-01 
   11 -7.823062804396411e+00 -3.981852132465821e+01 1.902313183573532e+01 
   12 -1.308177434061088e+01 -1.563790548043265e+01 3.014712933927829e+01 
   13 1.252291821337444e+01 -1.194718759635633e+01 5.366291018234067e-01 
   14 1.354276401097828e+01 1.150987182195036e+01 -2.818507601235390e+01 
   15 5.816427412751322e+00 1.037811560325426e+01 1.414461162378865e+01 
   16 -2.043507255451706e+01 -2.203382275524577e+01 2.650691648748559e+01 
   17 -9.960499325733556e+00 5.292295659483494e+00 -1.598754329869501e+01 
   18 5.654832683098980e-01 1.975800925563550e+01 -3.537096228331860e-02 
   19 4.800538696032199e+01 -3.248757293262060e+01 -5.548882761072464e+00 
   20 -8.261130600582275e+00 3.408868399226765e+00 1.980852825826862e+00 
   21 -9.857283903031497e+00 -9.884285457593045e+00 -9.474608549604465e+00 
   22 -1.709930130656724e+01 4.686301263729947e+01 2.517019200260429e+01 
   23 9.980552961908739e+00 -7.462110803221897e+00 -8.861735053371792e+00 
   24 2.897124032064722e+01 5.672629216700876e-01 7.060257851604737e+00 
   25 -2.262885912088621e+01 1.278917598017312e+01 -1.112109341807739e+01 
   26 -1.003532801499531e+01 2.845023372280131e+01 -1.408712908845855e+01 
   27 -1.201636717696745e+01 7.866669562153154e+00 7.639741064024319e+00 
   28 2.165296899059325e+01 4.209777141672049e+00 4.011697756173360e+00 
   29 -1.678364783427650e+01 -2.577379604457070e+01 -5.772975721018899e+01 
   30 -7.852854526072192e+00 5.632212875592415e+00 1.659707444895280e+01 
   31 1.666883289490483e+01 3.807947181108863e+01 1.824630233587183e+01 
   32 -3.257590522181469e+00 -6.839740154972578e+00 -1.091093760690959e+01 
   33 -2.539377049633659e+01 -2.273180148030725e+01 1.706812687950237e+01 
   34 2.109135119827362e+01 -4.392907703457337e+00 1.463222014729551e+01 
   35 7.191410652952620e+00 7.053416617887219e+00 7.243611191100515e+00 
   36 -5.759736352198302e+00 -2.531636728868552e-01 -1.691133074369566e+01 
   37 3.675592002826273e+01 -3.642379689615370e+01 -4.385533827734131e+01 
   38 -2.036596021466229e+01 -8.962835591544307e-01 1.830888809765197e+01 
   39 5.881503719040222e+00 2.220221966728451e+01 1.557482115362003e+01 
   40 3.379054724519047e+00 -4.554256470747941e+01 4.489071953691520e+01 
   41 3.743985153747602e+00 7.418130406831319e+00 -3.845265004347561e+00 
   42 -1.143384262831996e+01 -1.858060383493549e+00 -2.546962311370322e+01 
   43 -3.350978283888747e+01 -7.028398397430760e+00 -2.368769161437964e+01 
   44 2.446720345429987e+01 2.151429284348143e+01 2.242339866538254e+01 
   45 -1.595226136880715e+01 -5.733843289791884e+01 -2.399255264928415e+01 
   46 2.404891384529602e+01 9.316314251717221e+00 -7.782921569864645e+00 
   47 -1.893667324983535e+01 -2.396503383428286e+01 -1.944160862283249e+01 
   48 -4.383805423817224e+00 1.326917718527544e+01 1.068349513743730e+01 
   49 -3.279314227070761e+00 3.390668397254669e+01 2.794936168352625e+01 
   50 3.503659181769655e+01 4.993337438021987e+01 1.424585072726403e+01 
   51 -3.135568100023294e+00 -8.472447389850380e+00 1.129817176045605e+01 
   52 -2.343812471016208e+01 -1.971920968892788e+01 -6.885149167384057e+01 
   53 -1.113030404336780e+01 -1.377704496415686e+01 3.572191569149910e+01 
   54 2.879082424361347e+01 -2.578024359300335e+01 6.788138050295890e+00 
   55 -2.970742042865696e+01 5.719316953749853e+00 -4.021696851312446e+00 
   56 -4.924196634156742e+00 1.860317248079942e+01 -4.365402301649464e+00 
   57 1.151436543930660e+00 -5.629116103316527e+00 1.199751768230012e+00 
   58 -2.254340161558157e+01 1.366748475036568e+01 4.220757513094052e+00 
   59 2.055563166234804e+01 6.174863766394272e-01 -1.569005239331100e+01 
   60 3.887440492581623e+00 -2.823487399885024e+01 3.820226882852953e+01 
   61 -6.495864497452567e+00 1.524472579119940e+01 1.166644273918627e+01 
   62 -1.251929920109570e+00 4.261086798749282e+00 9.693681272616869e+00 
   63 2.445196921976628e+01 -1.133529778669477e+01 5.236800272349518e+00 
   64 1.916146035164949e+01 6.110784680087076e+00 2.565652743018101e+00 
   65 -1.106710191842773e+01 -1.571761994992919e+00 -9.884747337402924e+00 
   66 -4.001551676979339e+01 -2.391271366489051e+01 -6.045440986868172e+01 
   67 3.023935328488483e+00 8.284834662705736e+00 -1.134572713830110e+01 
   68 5.351881447197057e+01 -3.253918005173499e+01 2.614777193954458e+01 
   69 -3.101861656253156e+01 -1.574743077235787e+01 5.305429149019231e+00 
   70 4.856542178608296e+01 2.509965153365124e+01 1.401076042671482e+01 
   71 -3.257475314506930e+00 1.287934605938655e+01 1.275349095597147e+01 
   72 -5.849821524835964e+00 7.682198384450230e+00 -1.831832700591715e+01 
   73 1.398806235273493e+01 -1.646242942540662e+01 3.015379757368787e+01 
   74 -1.290709802562067e+00 2.766031286109495e+01 -6.969086445798776e+00 
   75 3.780732702377193e+00 -3.142693775648027e+01 -8.681081169935918e+00 
   76 1.557523428173582e+01 -4.273374705659443e+00 -5.886723727823198e+00 
   77 -7.658487366670918e+00 -3.072448316285262e+01 9.097344724691133e+00 
   78 -6.826814000707879e+00 6.567529514141668e+00 -1.769183359946214e+01 
   79 -2.055330441886417e+01 1.012877551302114e+02 8.265944999590621e+00 
   80 1.197862016002214e+01 2.040459661106714e+00 1.802886442256804e+00 
   81 -3.734740885576167e+01 -4.375670058939999e+01 6.861555513438063e+00 
   82 -1.128907581587061e+01 1.350322192548424e+01 1.480737039908228e+01 
   83 -2.652457896129754e+01 -6.841833123817339e+00 -9.113860532145866e+00 
   84 3.627883093654218e-01 -1.530566179625708e+01 -7.215932340999204e+00 
   85 2.077423049287485e+01 8.886682113616921e+00 -4.327741123305551e+00 
   86 1.374509709823289e+00 -1.216413995442428e+01 1.725446325124050e-01 
   87 9.165120508601747e+01 2.406738577218516e+00 2.795146012838162e+01 
   88 -3.599727768032498e+01 8.901424436383844e-01 -1.236887442557463e+00 
   89 -3.218122763931780e+01 3.840543887592499e+01 -1.729716348865256e+01 
   90 1.192375513320954e+01 8.681566320213921e+00 -7.979730710076979e+00 
   91 -2.087280217735301e+01 6.862065284068513e-01 -1.708323196570719e+01 
   92 -2.027735787405456e+01 -6.635033143123745e+00 -8.056448449547054e+01 
   93 -2.917758382549755e+00 -1.453371529564781e+00 1.880392647135937e+01 
   94 1.244290359824597e+01 1.554089821707125e+00 2.715422565904309e+01 
   95 5.345773490664112e+00 7.716840949994356e+00 1.402358844106488e+00 
   96 5.152626740949741e+01 -9.866261629349976e+00 4.276341777797225e+01 
   97 -1.293362593545318e+01 5.189576532848972e+00 8.989501892784194e+00 
   98 -2.162567519213048e+01 1.450201964695561e+01 -4.351317653438976e+01 
   99 1.475573771477066e+00 -4.648176140127678e+00 6.012387854675862e+00 
  100 -1.489932126692137e+01 -3.079489595361390e+01 2.211835483907818e+01 
  101 -1.827583999789369e+01 6.311684264129247e-01 1.431702946461488e+01 
  102 2.452416834397466e+01 3.268900558401980e+01 -1.323707827217509e+01 
  103 2.244080108160768e+01 7.711857858301956e+00 -2.708589386241751e+01 
  104 -1.251652225479291e+01 -6.060435922924446e+00 3.601427596839746e+00 
  105 4.808623967245213e+00 6.075895184408245e+00 2.012603793445284e+01 
  106 -5.577201962591264e+01 -4.041723786574906e+00 -4.080028603402218e+01 
  107 4.787645488810004e+01 -1.786643278206996e+01 3.736577253279489e+01 
  108 -1.455684456358970e-01 -6.395468193299853e+01 6.714914799616282e+01 
  109 1.012813460446131e+01 -4.574153390338130e-01 -8.303724879792753e+00 
  110 -4.354885017468815e+01 1.111732584025885e+01 -6.034423960729996e+01 
  111 -1.401823648140478e+01 1.373306984165215e+00 2.845700822103028e+01 
  112 -2.647136170273438e+00 1.758980112426355e+01 -8.469836834678887e+00 
  113 -5.491156228089289e+01 2.766374275616500e+01 -4.472357942592948e+01 
  114 1.048251545070236e+01 -1.685933130675782e+01 3.104262612136736e+00 
  115 2.349363416539732e+01 3.517930994786399e+00 2.115830627779671e+00 
  116 2.787438813223011e+00 -2.540334237355337e+01 1.683960656357092e+01 
  117 -3.307633257640773e+01 -3.140290391513305e+01 -6.418148532345647e+01 
  118 1.526471726659327e+01 6.566607685526907e+00 1.775407671950593e+01 
  119 5.065593043439495e+01 2.282901319809781e+01 2.981649053630284e+01 
  120 -1.480752452356184e+01 1.372723648499161e+01 -2.174285923057744e+00 
  121 -1.801423113976550e+01 2.080768189388787e+01 2.507247709559224e+01 
  122 6.520739787372500e+00 -3.010119806420821e+00 -2.616901139203738e+00 
  123 -1.167156876697605e+01 1.746697885377067e+01 -3.624030802287980e+00 
  124 6.609164839885556e+00 -2.657559116982164e+00 -1.667997121936224e+00 
  125 6.085342351891538e+01 3.096509016356768e+01 4.546334348754323e+01 
  126 8.241088705342074e+00 3.808165101109456e+00 4.778086610276685e+00 
  127 -1.559780474393432e+01 -2.654092603631700e+01 -4.324437807341873e+01 
  128 -4.645456067195096e+00 -3.091707286530442e+01 2.003852753194927e+01 
  129 1.058137850803903e+01 7.196562010029492e+00 -3.041212760328715e+00 
