ITEM: TIMESTEP
0
ITEM: NUMBER OF ATOMS
129
ITEM: BOX BOUNDS ss ss ss
1.7249 5.5351
-27.5081 4.8191
-8.2521 0.5421
ITEM: ATOMS id fx fy fz 
    1 -9.891751516522398e-01 -3.631521352621426e+00 -3.570918636186084e+00 
    2 4.245987690986318e-01 3.617659609623800e-01 1.613619551297511e-01 
    3 1.888295493553827e+00 3.285775438926517e+00 4.214641971284339e+00 
    4 -2.867234200609659e+00 -1.462201441153272e+00 -3.461252627315443e+00 
    5 6.112298017897494e-01 -1.253872939592124e+00 -3.918756047932013e-01 
    6 -1.616051809654179e-01 1.678514215762950e-01 -1.511401000529544e-01 
    7 6.087062787050584e-01 2.216971512338192e+00 1.962583709097133e+00 
    8 9.975590659924305e-01 2.236025851315790e+00 2.887820100667832e+00 
    9 -6.892868124287485e-01 -1.602246382112448e-01 -7.293277216118783e-01 
   10 6.299493175377766e-01 -1.042548616668880e-01 -2.847174439469093e+00 
   11 -7.464009450379605e-01 -3.919935222257022e+00 2.414027014598704e+00 
   12 1.717342675906171e-01 -1.256276898840733e+00 -1.311468782140549e+00 
   13 4.832437830637282e-02 6.584586141285087e-01 -1.253894720238665e-01 
   14 1.433442670124014e-01 6.226490734950850e-01 5.831081895086456e-01 
   15 6.865992754071595e-01 -1.125290336743836e-01 -3.574750701075601e-01 
   16 3.956494290457235e-01 1.148080803768671e+00 2.675123049335904e-02 
   17 5.038074867653752e-02 -6.449153655849305e-03 2.977564259569054e-02 
   18 4.090302456067191e-01 -4.054565072594665e-01 9.991097248588476e-02 
   19 -1.034314905544350e-01 2.671578073034541e-01 3.264511861246696e-01 
   20 2.899556348900623e-02 -1.850655340845020e-01 1.874806386048533e-02 
   21 -1.497749346606201e-01 2.291140787581789e-01 -2.049384078763843e-01 
   22 4.196589031738153e-01 -2.940462164561152e-01 7.693745227474569e-03 
   23 1.594732762326683e-01 3.834803416713584e-02 -3.616283022407972e-01 
   24 7.356483836947181e-01 -2.600778815662642e-01 1.309236382626246e+00 
   25 6.262070355265548e-02 2.002273993520337e-01 -2.244433491183724e-01 
   26 8.926607704765790e-02 2.345199413424536e-01 1.174057495870331e-01 
   27 -3.374207493644054e-01 9.500728361157140e-02 -1.575778867552802e-01 
   28 -4.790959523072007e-01 9.718452145452887e-01 -1.316070394189441e+00 
   29 5.753931169024311e-01 -7.175001368372864e-01 1.114481230546284e+00 
   30 -3.931736908604154e-01 -1.547092359286692e-01 -2.111854101183288e-01 
   31 -1.338996239520024e+00 -4.415486692541268e-01 -1.281869870172626e+00 
   32 2.309066999159272e-01 7.235867091196072e-01 -2.619346296207402e-01 
   33 -7.703827965098572e-01 9.217510507770840e-01 -4.408072661612192e-01 
   34 -3.978088232009702e-02 1.101785536434537e-01 1.294987336266874e-01 
   35 5.099598294972089e-02 -5.010786896822648e-01 -2.682537427118759e-01 
   36 3.680451595858471e-02 -5.128987792717195e-01 8.914433022633115e-01 
   37 -2.744546526507461e+00 -1.625924367897240e+00 1.018204601164546e+00 
   38 7.340466480090977e-01 -1.208151679858842e-01 -1.637586933627631e-01 
   39 2.045168047264216e+00 -4.323204247591139e-02 -1.271419669394331e+00 
   40 6.064081717139915e-01 -3.601682838555958e-01 -7.652757589307468e-02 
   41 -6.801240563666209e-01 7.422296533525287e-01 -2.019630699471249e-01 
   42 -6.880128943496331e-01 -1.307490785123151e-01 6.285979611920656e-02 
   43 -2.310668657439862e-01 -5.456769245153678e-01 -9.793497831138729e-01 
   44 -3.647207358127060e-01 -2.540640683338491e-01 4.270867919385147e-01 
   45 -6.004165849384386e+00 1.246805176527249e+00 8.923823830756296e-01 
   46 2.691826820882914e+00 3.091528362941566e-01 -1.105361128385332e-01 
   47 -3.888521416559695e-01 1.245931883826592e+00 -9.391023547900877e-01 
   48 2.926303601680617e-01 9.414878271059246e-02 3.717913976300051e-01 
   49 2.037698227836441e+00 -9.505269275139749e-01 1.388644096765337e+00 
   50 -2.193020525306336e+00 -1.442443982934640e+00 -2.837493973087212e+00 
   51 8.483200996580474e-01 -4.705235838834143e-03 1.707622202903009e-01 
   52 2.768125569444679e+00 -1.915916743714771e+00 2.185362864891436e+00 
   53 -2.197845288935654e-01 3.509622678349126e+00 -2.381954612323192e-01 
   54 3.046564113501195e+00 2.555860197959646e+00 -9.836719223836508e-01 
   55 -1.127046924596394e+00 -1.036337759826042e-02 4.346103370574647e-01 
   56 -1.701868134284602e+00 -5.212558657402179e-01 2.251642220018581e+00 
   57 1.200958437312487e+00 -1.484401603559623e+00 -5.703370357238906e-01 
   58 -2.209920787745364e+00 -5.864084713482323e-01 6.684281297431194e-01 
   59 1.701907081364887e+00 2.218027816799912e-01 -8.692317468092001e-02 
   60 6.531548461309381e-01 5.009943284569496e-02 -4.568630806857337e-01 
   61 -1.060882009396104e+00 7.413409297772681e-01 1.923995752363175e+00 
   62 9.500971792229511e-01 7.019472624276116e-01 6.834301557975309e-02 
   63 4.489482933638669e-01 6.476091897074929e-01 1.695763927645599e-01 
   64 8.018155535345532e-01 -6.535936257570917e-01 1.648732038693740e-01 
   65 -1.414074359732196e-01 4.510400064338356e-01 -6.044576346156362e-01 
   66 2.834989051081096e+00 -1.129716984362682e+00 1.913638190564017e+00 
   67 -1.090042705716672e+00 2.452962612444314e-01 -8.676357457649891e-02 
   68 3.051230592625317e-01 2.756218924520292e-01 -5.282105382721568e-01 
   69 -3.015578350370645e-01 1.158863318622378e-01 -2.088687685862380e-01 
   70 -1.164304527024323e+00 5.210402211088628e-01 -1.754560324219810e+00 
   71 1.224074704707134e+00 -8.396468368224024e-01 6.321853886294809e-01 
   72 -7.960612214784197e-01 -3.102982077054500e-01 -9.952140729698750e-02 
   73 -1.768500790115394e+00 -8.290835252178730e-01 -1.751886014270877e+00 
   74 4.272680478697869e-01 1.094792624336274e+00 -2.301054971939366e-01 
   75 -2.146524726749030e+00 1.894493745295290e+00 -2.015400125335673e-01 
   76 5.731407302676838e-01 4.159599690739610e-02 -4.792828650299841e-02 
   77 1.006791720088561e+00 -3.906744641702723e-01 -1.262512167169926e+00 
   78 -6.345808782479133e-01 -1.538228442058913e+00 1.091720087192830e+00 
   79 -2.348700811141119e+00 -3.220134486307683e+00 1.962890481216896e+00 
   80 4.493357686781800e-01 -5.972544217390263e-02 -3.392718756009846e-01 
   81 2.441991372909297e+00 8.236399845223974e-01 -2.030664840868059e+00 
   82 5.264653074914001e-01 6.961079254129839e-01 -5.545219131219290e-01 
   83 -2.497081154195904e-01 4.049568195103829e-01 -3.308065607320438e-01 
   84 -7.100095235703279e-01 -5.157182345699827e-01 -9.868006268177609e-02 
   85 -3.886508618505424e-01 -9.669785506724313e-01 -8.312982988940026e-01 
   86 -4.532356555882923e-01 -1.952549326915143e-01 4.814744795883423e-01 
   87 -6.015583569346912e+00 1.056844791846784e+00 1.579785177383458e+00 
   88 2.761115619636441e+00 2.295335665012885e-01 -2.425606057400625e-01 
   89 -8.644027004032760e-01 1.813607905853278e+00 -5.438087328052892e-01 
   90 4.797370956538909e-01 -2.140299633428575e-01 3.416855397046867e-01 
   91 1.907155262580623e+00 -1.590813234226218e+00 6.688449973991168e-01 
   92 -2.049956209781357e+00 -1.349903935844836e+00 -3.391909457521128e+00 
   93 4.642233961112258e-01 1.083937035912382e-01 2.556680897255929e-01 
   94 3.424372285351238e+00 -2.322872624208738e+00 2.478419115937764e+00 
   95 -4.148605710195850e-01 3.876500750601914e+00 -2.531396744216849e-01 
   96 3.111115390471884e+00 1.349611592107158e+00 -7.518818683487524e-01 
   97 -1.510254152394528e+00 7.147739841774894e-02 4.402459010501634e-01 
   98 -2.045732308613252e+00 6.392752128385077e-01 2.163415907561819e+00 
   99 1.266851925289267e+00 -2.127843155312949e+00 -5.947576252586637e-01 
  100 -1.557099354702497e+00 -6.270867787535168e-01 1.008942143306666e+00 
  101 1.142548233333759e+00 7.592375555043440e-02 -1.199182542689984e-01 
  102 7.285117900751618e-01 -5.922686607324854e-01 -1.473022168419184e-01 
  103 -1.736681869626115e+00 2.146399971192178e+00 8.678931178598088e-01 
  104 8.941787631086193e-01 5.808236972532401e-01 1.774437515246983e-01 
  105 5.336530809125001e-01 -4.830248142503613e-01 7.669932668251156e-01 
  106 1.250953952838983e+00 -1.923193854409387e+00 1.663029550655289e+00 
  107 -3.963014695532712e-01 7.028891962276202e-01 -1.984950219184085e+00 
  108 -4.203982218403280e-01 1.673645556637928e-01 5.457567269664754e-01 
  109 4.548104544595714e-01 -2.015640652964298e-01 -8.421573832351864e-02 
  110 5.831507882285429e-01 -2.404543289171432e-01 2.368456584938247e-01 
  111 -3.669968242272187e-01 1.382194014079021e-01 -1.361665236739351e-02 
  112 5.687249471083424e-01 6.273366125549382e-01 -4.339126208779483e-01 
  113 1.221599023906834e+00 1.113698952885236e-01 7.156969703349260e-01 
  114 -3.765303683275296e-01 -2.785156520687712e-01 -2.125356097320408e-01 
  115 -1.043954510042701e+00 -9.768499952782086e-02 -1.348786076028929e+00 
  116 -2.733113343978917e-01 -3.117224167773721e-01 7.695019420971182e-02 
  117 -9.740958946537193e-01 -7.540096790791710e-01 -3.677841080634251e-01 
  118 7.510333378159858e-01 -1.039757237695753e-01 3.027990145295752e-01 
  119 8.399678800352853e-01 -3.438870898442248e-01 2.643296093633043e-01 
  120 -7.476549637711503e-01 1.737073722298544e+00 -2.038899710053446e+00 
  121 -3.287683991360066e-01 1.349344415508284e-02 3.245851986294406e-01 
  122 5.339723550258871e-01 -7.084627565929758e-03 1.342864693173027e-01 
  123 3.150856731739676e-01 -4.502547848301851e-01 3.731478924733030e-01 
  124 -6.531387230463650e-01 1.777226144410955e-01 -2.084488903161426e-01 
  125 -6.619765848158925e-01 9.525780911857226e-01 2.987635214554634e-01 
  126 3.186235843716076e-01 -2.640620299108720e-03 1.026446818713203e-01 
  127 -7.136289478646807e-02 1.249537447306601e-01 -3.345619749099631e-01 
  128 -5.400191445858971e-01 5.901102839253607e-01 -8.588679488904102e-02 
  129 2.987375513242796e-01 -3.636571959034618e-01 3.477647201241192e-01 
