Created by charmm2lammps v1.8.2.5 beta on Mon Nov 21 00:02:58 EST 2011

           5  atoms
           4  bonds
           6  angles
           0  dihedrals
           0  impropers

           2  atom types
           1  bond types
           1  angle types
           0  dihedral types
           0  improper types

       0.004        1.495 xlo xhi
      -0.505        1.065 ylo yhi
      -0.907        0.907 zlo zhi

Masses

       1    1.00783
       2         12

Pair Coeffs

       1      0.022   2.351973      0.022   2.351973
       2       0.08   3.670503       0.01   3.385415

Atoms

       1       1     2     -0.12       1.215       0.011           0
       2       1     1      0.03       1.465       1.065           0
       3       1     1      0.03       0.004       -0.01           0
       4       1     1      0.03       1.495      -0.505      -0.907
       5       1     1      0.03       1.495      -0.505       0.907

Bond Coeffs

       1        322      1.111

Bonds

       1       1       1       2
       2       1       1       3
       3       1       1       4
       4       1       1       5

Angle Coeffs

       1       35.5      108.4        5.4      1.802

Angles

       1       1       2       1       3
       2       1       2       1       4
       3       1       2       1       5
       4       1       3       1       4
       5       1       3       1       5
       6       1       4       1       5

