Created by charmm2lammps v1.8.2.5 beta on Mon Nov 21 00:03:23 EST 2011

          10  atoms
           8  bonds
          12  angles
           0  dihedrals
           0  impropers

           2  atom types
           1  bond types
           1  angle types
           0  dihedral types
           0  improper types

      -1.211         4.28 xlo xhi
      -0.516        1.054 ylo yhi
      -0.907        0.907 zlo zhi

Masses

       1    1.00783
       2         12

Pair Coeffs

       1      0.022   2.351973      0.022   2.351973
       2       0.08   3.670503       0.01   3.385415

Atoms

       1       1     2     -0.12           0           0           0
       2       1     1      0.03        0.25       1.054           0
       3       1     1      0.03      -1.211      -0.021           0
       4       1     1      0.03        0.28      -0.516      -0.907
       5       1     1      0.03        0.28      -0.516       0.907
       6       2     2     -0.12           4           0           0
       7       2     1      0.03        4.25       1.054           0
       8       2     1      0.03       2.789      -0.021           0
       9       2     1      0.03        4.28      -0.516      -0.907
      10       2     1      0.03        4.28      -0.516       0.907

Bond Coeffs

       1        322      1.111

Bonds

       1       1       1       2
       2       1       1       3
       3       1       1       4
       4       1       1       5
       5       1       6       7
       6       1       6       8
       7       1       6       9
       8       1       6      10

Angle Coeffs

       1       35.5      108.4        5.4      1.802

Angles

       1       1       2       1       3
       2       1       2       1       4
       3       1       2       1       5
       4       1       3       1       4
       5       1       3       1       5
       6       1       4       1       5
       7       1       7       6       8
       8       1       7       6       9
       9       1       7       6      10
      10       1       8       6       9
      11       1       8       6      10
      12       1       9       6      10

