Created by charmm2lammps v1.8.2.5 beta on Sun Nov 20 19:12:20 EST 2011

         129  atoms
         134  bonds
         247  angles
         570  dihedrals
           0  impropers

          10  atom types
          16  bond types
          37  angle types
         106  dihedral types
           0  improper types

       1.725        5.535 xlo xhi
     -27.508        4.819 ylo yhi
      -8.252        0.542 zlo zhi

Masses

       1     12.011
       2     12.011
       3     12.011
       4     12.011
       5      1.008
       6      1.008
       7      1.008
       8    15.9994
       9    15.9994
      10    15.9994

Pair Coeffs

       1      0.032   3.563595       0.01   3.385415
       2      0.032   3.563595       0.01   3.385415
       3      0.032   3.563595       0.01   3.385415
       4      0.056   3.581413       0.01   3.385415
       5      0.045   2.387609      0.045   2.387609
       6      0.035   2.387609      0.035   2.387609
       7      0.046  0.4000135      0.046  0.4000135
       8     0.1921   3.144872     0.1921   3.144872
       9        0.1   2.939966        0.1   2.939966
      10        0.1   2.939966        0.1   2.939966

Atoms

       1       1     2      0.34       3.667        3.24      -3.721
       2       1     5      0.09       4.753        3.28      -3.968
       3       1     8     -0.65       3.237       4.539      -3.429
       4       1     7      0.42       3.736       4.819      -2.651
       5       1     3      0.11       3.493        1.46      -5.261
       6       1     5      0.09       4.581       1.594      -5.472
       7       1     9      -0.4       2.936       2.699       -4.82
       8       1     1      0.14       3.438       2.329      -2.526
       9       1     5      0.09       2.339       2.315      -2.327
      10       1     8     -0.65        4.09       2.842      -1.351
      11       1     7      0.42       3.512       2.723      -0.592
      12       1     1      0.14       3.875       0.905      -2.845
      13       1     5      0.09        4.99       0.905      -2.928
      14       1     8     -0.65       3.518      -0.007       -1.81
      15       1     7      0.42       3.925      -0.863      -2.015
      16       1     1      0.09       3.312        0.42      -4.164
      17       1     5      0.09       2.217       0.233      -4.058
      18       1    10     -0.36       3.989      -0.762      -4.598
      19       1     4      0.05       2.784       1.151      -6.564
      20       1     6      0.09       1.729       0.854      -6.367
      21       1     6      0.09       2.763        2.08      -7.181
      22       1     8     -0.65       3.446       0.133      -7.319
      23       1     7      0.42       3.211       0.207      -8.252
      24       2     2      0.29       3.496      -2.005      -4.161
      25       2     5      0.09       2.397      -1.968       -3.98
      26       2     3      0.11       3.741        -3.7      -2.511
      27       2     5      0.09       2.648      -3.618      -2.302
      28       2     9      -0.4       4.215      -2.435      -2.995
      29       2     1      0.14        3.82      -2.966      -5.284
      30       2     5      0.09       4.922       -2.93      -5.467
      31       2     8     -0.65       3.154      -2.562      -6.483
      32       2     7      0.42       3.445      -1.663      -6.721
      33       2     1      0.14       3.449      -4.392      -4.911
      34       2     5      0.09       2.332      -4.443      -4.875
      35       2     8     -0.65       3.896      -5.328      -5.888
      36       2     7      0.42       3.371      -6.134      -5.788
      37       2     1      0.09       3.976      -4.785      -3.555
      38       2     5      0.09       5.076      -4.956      -3.618
      39       2    10     -0.36       3.307      -5.964       -3.09
      40       2     4      0.05        4.47      -3.937        -1.2
      41       2     6      0.09       5.524      -4.241      -1.399
      42       2     6      0.09       4.498      -2.983      -0.623
      43       2     8     -0.65       3.832      -4.928      -0.389
      44       2     7      0.42       4.209      -4.922       0.499
      45       3     2      0.29       3.786      -7.209      -3.547
      46       3     5      0.09       4.876      -7.172      -3.753
      47       3     3      0.11       3.526      -8.901      -5.196
      48       3     5      0.09       4.616      -8.801      -5.415
      49       3     9      -0.4       3.035      -7.647      -4.694
      50       3     1      0.14       3.481      -8.172       -2.42
      51       3     5      0.09       2.377      -8.159      -2.241
      52       3     8     -0.65       4.128      -7.754      -1.216
      53       3     7      0.42       3.746       -6.91      -0.932
      54       3     1      0.14       3.874       -9.59      -2.804
      55       3     5      0.09       4.992      -9.618      -2.869
      56       3     8     -0.65       3.469     -10.538      -1.825
      57       3     7      0.42       3.922     -11.371      -2.016
      58       3     1      0.09        3.32      -9.986      -4.149
      59       3     5      0.09       2.218     -10.159      -4.061
      60       3    10     -0.36       3.977     -11.161      -4.628
      61       3     4      0.05       2.799      -9.159      -6.507
      62       3     6      0.09       1.735      -9.427      -6.308
      63       3     6      0.09       2.805      -8.224      -7.113
      64       3     8     -0.65       3.416     -10.193      -7.278
      65       3     7      0.42       3.183     -10.105       -8.21
      66       4     2      0.29       3.499     -12.406      -4.184
      67       4     5      0.09       2.404     -12.375      -3.989
      68       4     3      0.11       3.749     -14.091      -2.528
      69       4     5      0.09       2.657     -13.996      -2.319
      70       4     9      -0.4        4.24     -12.841      -3.032
      71       4     1      0.14       3.821     -13.364      -5.306
      72       4     5      0.09       4.924      -13.33      -5.488
      73       4     8     -0.65        3.16     -12.954      -6.506
      74       4     7      0.42       3.438     -12.047      -6.724
      75       4     1      0.14       3.447     -14.788      -4.927
      76       4     5      0.09       2.329     -14.834      -4.887
      77       4     8     -0.65       3.887     -15.727      -5.902
      78       4     7      0.42       3.366     -16.533      -5.792
      79       4     1      0.09       3.975     -15.179       -3.57
      80       4     5      0.09       5.075     -15.353      -3.634
      81       4    10     -0.36       3.305     -16.357      -3.101
      82       4     4      0.05       4.475     -14.322      -1.214
      83       4     6      0.09       5.531     -14.619      -1.408
      84       4     6      0.09       4.495     -13.365       -0.64
      85       4     8     -0.65        3.84     -15.314      -0.403
      86       4     7      0.42       4.199     -15.288       0.492
      87       5     2      0.29       3.787     -17.602      -3.555
      88       5     5      0.09       4.877     -17.564       -3.76
      89       5     3      0.11       3.523     -19.305      -5.195
      90       5     5      0.09       4.613      -19.21      -5.414
      91       5     9      -0.4       3.037     -18.045        -4.7
      92       5     1      0.14       3.483      -18.56      -2.424
      93       5     5      0.09        2.38     -18.544      -2.242
      94       5     8     -0.65       4.134     -18.138      -1.224
      95       5     7      0.42       3.752     -17.295      -0.938
      96       5     1      0.14        3.87     -19.981      -2.802
      97       5     5      0.09       4.988     -20.016      -2.869
      98       5     8     -0.65       3.461     -20.918      -1.814
      99       5     7      0.42       3.898      -21.76      -2.003
     100       5     1      0.09        3.31     -20.385      -4.144
     101       5     5      0.09       2.208     -20.549      -4.051
     102       5    10     -0.36       3.953     -21.569      -4.624
     103       5     4      0.05       2.794     -19.563      -6.504
     104       5     6      0.09       1.725     -19.809      -6.304
     105       5     6      0.09       2.816     -18.631      -7.118
     106       5     8     -0.65        3.39     -20.615      -7.267
     107       5     7      0.42       3.197     -20.503      -8.204
     108       6     2      0.29       3.488     -22.813      -4.158
     109       6     5      0.09       2.389      -22.79      -3.972
     110       6     3      0.11       3.787     -24.477      -2.476
     111       6     5      0.09       2.686     -24.446        -2.3
     112       6     9      -0.4       4.222     -23.208       -2.99
     113       6     1      0.14        3.83     -23.787      -5.265
     114       6     5      0.09        4.93     -23.721      -5.454
     115       6     8     -0.65       3.153      -23.42      -6.471
     116       6     7      0.42       3.411      -22.51      -6.707
     117       6     1      0.14       3.514     -25.217      -4.855
     118       6     5      0.09       2.401     -25.298      -4.766
     119       6     8     -0.65       3.948     -26.167      -5.833
     120       6     7      0.42       3.186     -26.653      -6.161
     121       6     1      0.14       4.113     -25.553      -3.505
     122       6     5      0.09       5.224     -25.577      -3.617
     123       6     8     -0.65       3.686     -26.837      -3.063
     124       6     7      0.42       4.224     -27.508      -3.495
     125       6     4      0.05       4.493     -24.644      -1.142
     126       6     6      0.09       5.535     -24.997      -1.308
     127       6     6      0.09       4.544     -23.657      -0.626
     128       6     8     -0.65       3.804     -25.545      -0.273
     129       6     7      0.42       4.295     -25.682       0.542

Bond Coeffs

       1      222.5       1.48
       2      222.5       1.48
       3      222.5        1.5
       4        309      1.111
       5        360      1.415
       6        410       1.41
       7        309      1.111
       8        360      1.395
       9        428        1.4
      10        360      1.425
      11      222.5       1.49
      12        309      1.111
      13        360      1.425
      14        309      1.111
      15        428       1.42
      16        545       0.96

Bonds

       1       9       1       3
       2       7       1       2
       3      16       3       4
       4      10       1       7
       5       2       1       8
       6       4       8       9
       7       6       8      10
       8      16      10      11
       9       1       8      12
      10       4      12      13
      11       6      12      14
      12      16      14      15
      13       1      12      16
      14       4      16      17
      15       5      16      18
      16       3      16       5
      17      12       5       6
      18      11       5      19
      19      14      19      20
      20      14      19      21
      21      15      19      22
      22      16      22      23
      23      13       5       7
      24       7      24      25
      25      10      24      28
      26       2      24      29
      27       4      29      30
      28       6      29      31
      29      16      31      32
      30       1      29      33
      31       4      33      34
      32       6      33      35
      33      16      35      36
      34       1      33      37
      35       4      37      38
      36       5      37      39
      37       3      37      26
      38      12      26      27
      39      11      26      40
      40      14      40      41
      41      14      40      42
      42      15      40      43
      43      16      43      44
      44      13      26      28
      45       7      45      46
      46      10      45      49
      47       2      45      50
      48       4      50      51
      49       6      50      52
      50      16      52      53
      51       1      50      54
      52       4      54      55
      53       6      54      56
      54      16      56      57
      55       1      54      58
      56       4      58      59
      57       5      58      60
      58       3      58      47
      59      12      47      48
      60      11      47      61
      61      14      61      62
      62      14      61      63
      63      15      61      64
      64      16      64      65
      65      13      47      49
      66       7      66      67
      67      10      66      70
      68       2      66      71
      69       4      71      72
      70       6      71      73
      71      16      73      74
      72       1      71      75
      73       4      75      76
      74       6      75      77
      75      16      77      78
      76       1      75      79
      77       4      79      80
      78       5      79      81
      79       3      79      68
      80      12      68      69
      81      11      68      82
      82      14      82      83
      83      14      82      84
      84      15      82      85
      85      16      85      86
      86      13      68      70
      87       7      87      88
      88      10      87      91
      89       2      87      92
      90       4      92      93
      91       6      92      94
      92      16      94      95
      93       1      92      96
      94       4      96      97
      95       6      96      98
      96      16      98      99
      97       1      96     100
      98       4     100     101
      99       5     100     102
     100       3     100      89
     101      12      89      90
     102      11      89     103
     103      14     103     104
     104      14     103     105
     105      15     103     106
     106      16     106     107
     107      13      89      91
     108       7     108     109
     109      10     108     112
     110       2     108     113
     111       4     113     114
     112       6     113     115
     113      16     115     116
     114       1     113     117
     115       4     117     118
     116       6     117     119
     117      16     119     120
     118       1     117     121
     119       4     121     122
     120       6     121     123
     121      16     123     124
     122       3     121     110
     123      12     110     111
     124      11     110     125
     125      14     125     126
     126      14     125     127
     127      15     125     128
     128      16     128     129
     129      13     110     112
     130       8      18      24
     131       8      39      45
     132       8      60      66
     133       8      81      87
     134       8     102     108

Angle Coeffs

       1      53.35        111          8      2.561
       2      53.35        111          8      2.561
       3      53.35        111          8      2.561
       4       34.5      110.1      22.53      2.179
       5         45        109          0          0
       6       75.7      110.1          0          0
       7       34.5      110.1      22.53      2.179
       8         45        105          0          0
       9       75.7        107          0          0
      10         45        106          0          0
      11      58.35      113.5      11.16      2.561
      12       34.5      110.1      22.53      2.179
      13         45        110          0          0
      14         50      109.2          0          0
      15         50        109          0          0
      16       34.5      110.1      22.53      2.179
      17       75.7      110.1          0          0
      18         50        109          0          0
      19         95      109.7          0          0
      20       34.5      110.1      22.53      2.179
      21         45        109          0          0
      22       75.7      110.1          0          0
      23      33.43      110.1      22.53      2.179
      24       75.7      110.1          0          0
      25       34.5      110.1      22.53      2.179
      26         45        109          0          0
      27         50        109          0          0
      28         60      109.5          0          0
      29         55     108.89          0          0
      30         60      109.5          0          0
      31         55     108.89          0          0
      32         45      109.5          0          0
      33         45      109.5          0          0
      34       35.5        109        5.4      1.802
      35         55     108.89          0          0
      36         90        112          0          0
      37         45      116.5          0          0

Angles

       1      31       2       1       3
       2      32       2       1       7
       3       7       2       1       8
       4      37       3       1       7
       5       9       3       1       8
       6      10       7       1       8
       7      18       1       3       4
       8      33       6       5       7
       9      12       6       5      16
      10      25       6       5      19
      11      13       7       5      16
      12      26       7       5      19
      13      11      16       5      19
      14      19       1       7       5
      15      16       1       8       9
      16      17       1       8      10
      17       2       1       8      12
      18      29       9       8      10
      19       4       9       8      12
      20       6      10       8      12
      21      15       8      10      11
      22       4       8      12      13
      23       6       8      12      14
      24       1       8      12      16
      25      29      13      12      14
      26       4      13      12      16
      27       6      14      12      16
      28      15      12      14      15
      29       3       5      16      12
      30      20       5      16      17
      31      21       5      16      18
      32       4      12      16      17
      33       5      12      16      18
      34      28      17      16      18
      35      14      16      18      24
      36      23       5      19      20
      37      23       5      19      21
      38      24       5      19      22
      39      34      20      19      21
      40      35      20      19      22
      41      35      21      19      22
      42      27      19      22      23
      43      30      18      24      25
      44      36      18      24      28
      45       8      18      24      29
      46      32      25      24      28
      47       7      25      24      29
      48      10      28      24      29
      49      33      27      26      28
      50      12      27      26      37
      51      25      27      26      40
      52      13      28      26      37
      53      26      28      26      40
      54      11      37      26      40
      55      19      24      28      26
      56      16      24      29      30
      57      17      24      29      31
      58       2      24      29      33
      59      29      30      29      31
      60       4      30      29      33
      61       6      31      29      33
      62      15      29      31      32
      63       4      29      33      34
      64       6      29      33      35
      65       1      29      33      37
      66      29      34      33      35
      67       4      34      33      37
      68       6      35      33      37
      69      15      33      35      36
      70       3      26      37      33
      71      20      26      37      38
      72      21      26      37      39
      73       4      33      37      38
      74       5      33      37      39
      75      28      38      37      39
      76      14      37      39      45
      77      23      26      40      41
      78      23      26      40      42
      79      24      26      40      43
      80      34      41      40      42
      81      35      41      40      43
      82      35      42      40      43
      83      27      40      43      44
      84      30      39      45      46
      85      36      39      45      49
      86       8      39      45      50
      87      32      46      45      49
      88       7      46      45      50
      89      10      49      45      50
      90      33      48      47      49
      91      12      48      47      58
      92      25      48      47      61
      93      13      49      47      58
      94      26      49      47      61
      95      11      58      47      61
      96      19      45      49      47
      97      16      45      50      51
      98      17      45      50      52
      99       2      45      50      54
     100      29      51      50      52
     101       4      51      50      54
     102       6      52      50      54
     103      15      50      52      53
     104       4      50      54      55
     105       6      50      54      56
     106       1      50      54      58
     107      29      55      54      56
     108       4      55      54      58
     109       6      56      54      58
     110      15      54      56      57
     111       3      47      58      54
     112      20      47      58      59
     113      21      47      58      60
     114       4      54      58      59
     115       5      54      58      60
     116      28      59      58      60
     117      14      58      60      66
     118      23      47      61      62
     119      23      47      61      63
     120      24      47      61      64
     121      34      62      61      63
     122      35      62      61      64
     123      35      63      61      64
     124      27      61      64      65
     125      30      60      66      67
     126      36      60      66      70
     127       8      60      66      71
     128      32      67      66      70
     129       7      67      66      71
     130      10      70      66      71
     131      33      69      68      70
     132      12      69      68      79
     133      25      69      68      82
     134      13      70      68      79
     135      26      70      68      82
     136      11      79      68      82
     137      19      66      70      68
     138      16      66      71      72
     139      17      66      71      73
     140       2      66      71      75
     141      29      72      71      73
     142       4      72      71      75
     143       6      73      71      75
     144      15      71      73      74
     145       4      71      75      76
     146       6      71      75      77
     147       1      71      75      79
     148      29      76      75      77
     149       4      76      75      79
     150       6      77      75      79
     151      15      75      77      78
     152       3      68      79      75
     153      20      68      79      80
     154      21      68      79      81
     155       4      75      79      80
     156       5      75      79      81
     157      28      80      79      81
     158      14      79      81      87
     159      23      68      82      83
     160      23      68      82      84
     161      24      68      82      85
     162      34      83      82      84
     163      35      83      82      85
     164      35      84      82      85
     165      27      82      85      86
     166      30      81      87      88
     167      36      81      87      91
     168       8      81      87      92
     169      32      88      87      91
     170       7      88      87      92
     171      10      91      87      92
     172      33      90      89      91
     173      12      90      89     100
     174      25      90      89     103
     175      13      91      89     100
     176      26      91      89     103
     177      11     100      89     103
     178      19      87      91      89
     179      16      87      92      93
     180      17      87      92      94
     181       2      87      92      96
     182      29      93      92      94
     183       4      93      92      96
     184       6      94      92      96
     185      15      92      94      95
     186       4      92      96      97
     187       6      92      96      98
     188       1      92      96     100
     189      29      97      96      98
     190       4      97      96     100
     191       6      98      96     100
     192      15      96      98      99
     193       3      89     100      96
     194      20      89     100     101
     195      21      89     100     102
     196       4      96     100     101
     197       5      96     100     102
     198      28     101     100     102
     199      14     100     102     108
     200      23      89     103     104
     201      23      89     103     105
     202      24      89     103     106
     203      34     104     103     105
     204      35     104     103     106
     205      35     105     103     106
     206      27     103     106     107
     207      30     102     108     109
     208      36     102     108     112
     209       8     102     108     113
     210      32     109     108     112
     211       7     109     108     113
     212      10     112     108     113
     213      33     111     110     112
     214      12     111     110     121
     215      25     111     110     125
     216      13     112     110     121
     217      26     112     110     125
     218      11     121     110     125
     219      19     108     112     110
     220      16     108     113     114
     221      17     108     113     115
     222       2     108     113     117
     223      29     114     113     115
     224       4     114     113     117
     225       6     115     113     117
     226      15     113     115     116
     227       4     113     117     118
     228       6     113     117     119
     229       1     113     117     121
     230      29     118     117     119
     231       4     118     117     121
     232       6     119     117     121
     233      15     117     119     120
     234       3     110     121     117
     235      20     110     121     122
     236      22     110     121     123
     237       4     117     121     122
     238       6     117     121     123
     239      29     122     121     123
     240      15     121     123     124
     241      23     110     125     126
     242      23     110     125     127
     243      24     110     125     128
     244      34     126     125     127
     245      35     126     125     128
     246      35     127     125     128
     247      27     125     128     129

Dihedral Coeffs

       1       0.19          3        180        0.5
       2       0.19          3        180        0.5
       3        0.2          3          0          1
       4        0.2          3          0          1
       5        0.2          3          0          1
       6        0.2          3          0          1
       7        0.2          3          0          1
       8        0.2          3          0          1
       9       0.31          3        180        0.5
      10        0.2          3          0          1
      11        0.2          3          0          1
      12       0.31          3        180        0.5
      13       0.13          1        180          1
      14       0.25          2        180          0
      15       0.06          3        180          0
      16       0.29          1          0          1
      17       0.62          2          0          0
      18       0.05          3          0          0
      19       0.41          1        180          1
      20       0.66          2        180          0
      21        1.6          3          0          0
      22       0.29          1          0          1
      23       0.62          2          0          0
      24       0.05          3          0          0
      25        0.2          3          0        0.5
      26        0.2          3          0          1
      27        0.2          3          0          1
      28        0.2          3          0        0.5
      29      0.284          3          0          1
      30       0.05          1        180          1
      31       0.91          2          0          0
      32       1.27          3        180          0
      33        0.2          3          0          1
      34        0.2          3          0          1
      35       0.29          1          0          1
      36       0.62          2          0          0
      37       0.05          3          0          0
      38       0.13          1        180          1
      39       0.25          2        180          0
      40       0.06          3        180          0
      41      0.284          3          0          1
      42        0.2          3          0          1
      43      0.284          3          0          1
      44        0.2          3          0          1
      45        0.2          3          0          1
      46       0.29          1          0          1
      47       0.62          2          0          0
      48       0.05          3          0          0
      49       0.29          1          0          1
      50       0.62          2          0          0
      51       0.05          3          0          0
      52      0.284          3          0          1
      53       0.41          1        180          1