Created by charmm2lammps v1.8.2.5 beta on Sun Nov 20 20:13:35 EST 2011

          24  atoms
          24  bonds
          42  angles
          95  dihedrals
           0  impropers

           9  atom types
          14  bond types
          30  angle types
          74  dihedral types
           0  improper types

      19.271       24.695 xlo xhi
      51.739         56.5 ylo yhi
      92.817       98.493 zlo zhi

Masses

       1     12.011
       2     12.011
       3     12.011
       4     12.011
       5      1.008
       6      1.008
       7      1.008
       8    15.9994
       9    15.9994

Pair Coeffs

       1      0.032   3.563595       0.01   3.385415
       2      0.032   3.563595       0.01   3.385415
       3      0.032   3.563595       0.01   3.385415
       4      0.056   3.581413       0.01   3.385415
       5      0.045   2.387609      0.045   2.387609
       6      0.035   2.387609      0.035   2.387609
       7      0.046  0.4000135      0.046  0.4000135
       8     0.1921   3.144872     0.1921   3.144872
       9        0.1   2.939966        0.1   2.939966

Atoms

       1       1     2      0.34      20.909      52.734      96.053
       2       1     5      0.09       21.45      51.841      96.445
       3       1     8     -0.65      19.539      52.544      96.273
       4       1     7      0.42      19.271      51.844      95.668
       5       1     3      0.11      22.791      54.097      96.565
       6       1     5      0.09      23.317      53.183      96.932
       7       1     9      -0.4      21.376       53.91      96.718
       8       1     1      0.14      21.161      52.873      94.558
       9       1     5      0.09      20.597      53.769        94.2
      10       1     8     -0.65      20.693      51.739      93.819
      11       1     7      0.42      21.019      51.845      92.914
      12       1     1      0.14      22.636      53.108      94.296
      13       1     5      0.09      23.201      52.206      94.638
      14       1     8     -0.65      22.899      53.275      92.903
      15       1     7      0.42      23.828      53.526      92.817
      16       1     1      0.14      23.117      54.301      95.094
      17       1     5      0.09       22.57      55.203      94.724
      18       1     8     -0.65      24.513      54.524      94.918
      19       1     7      0.42      24.695       55.46      95.075
      20       1     4      0.05      23.205      55.251      97.454
      21       1     6      0.09      24.316      55.317      97.493
      22       1     6      0.09      22.842       55.08      98.493
      23       1     8     -0.65      22.695      56.495      96.973
      24       1     7      0.42      21.736        56.5      97.084

Bond Coeffs

       1      222.5       1.48
       2      222.5       1.48
       3      222.5        1.5
       4        309      1.111
       5        410       1.41
       6        309      1.111
       7        428        1.4
       8        360      1.425
       9      222.5       1.49
      10        309      1.111
      11        360      1.425
      12        309      1.111
      13        428       1.42
      14        545       0.96

Bonds

       1       7       1       3
       2       6       1       2
       3      14       3       4
       4       8       1       7
       5       2       1       8
       6       4       8       9
       7       5       8      10
       8      14      10      11
       9       1       8      12
      10       4      12      13
      11       5      12      14
      12      14      14      15
      13       1      12      16
      14       4      16      17
      15       5      16      18
      16      14      18      19
      17       3      16       5
      18      10       5       6
      19       9       5      20
      20      12      20      21
      21      12      20      22
      22      13      20      23
      23      14      23      24
      24      11       5       7

Angle Coeffs

       1      53.35        111          8      2.561
       2      53.35        111          8      2.561
       3      53.35        111          8      2.561
       4       34.5      110.1      22.53      2.179
       5       75.7      110.1          0          0
       6       34.5      110.1      22.53      2.179
       7       75.7        107          0          0
       8         45        106          0          0
       9      58.35      113.5      11.16      2.561
      10       34.5      110.1      22.53      2.179
      11         45        110          0          0
      12         50        109          0          0
      13       34.5      110.1      22.53      2.179
      14       75.7      110.1          0          0
      15         50        109          0          0
      16         95      109.7          0          0
      17       34.5      110.1      22.53      2.179
      18       75.7      110.1          0          0
      19      33.43      110.1      22.53      2.179
      20       75.7      110.1          0          0
      21       34.5      110.1      22.53      2.179
      22         45        109          0          0
      23         50        109          0          0
      24         55     108.89          0          0
      25         55     108.89          0          0
      26         45      109.5          0          0
      27         45      109.5          0          0
      28       35.5        109        5.4      1.802
      29         55     108.89          0          0
      30         45      116.5          0          0

Angles

       1      25       2       1       3
       2      26       2       1       7
       3       6       2       1       8
       4      30       3       1       7
       5       7       3       1       8
       6       8       7       1       8
       7      15       1       3       4
       8      27       6       5       7
       9      10       6       5      16
      10      21       6       5      20
      11      11       7       5      16
      12      22       7       5      20
      13       9      16       5      20
      14      16       1       7       5
      15      13       1       8       9
      16      14       1       8      10
      17       2       1       8      12
      18      24       9       8      10
      19       4       9       8      12
      20       5      10       8      12
      21      12       8      10      11
      22       4       8      12      13
      23       5       8      12      14
      24       1       8      12      16
      25      24      13      12      14
      26       4      13      12      16
      27       5      14      12      16
      28      12      12      14      15
      29       3       5      16      12
      30      17       5      16      17
      31      18       5      16      18
      32       4      12      16      17
      33       5      12      16      18
      34      24      17      16      18
      35      12      16      18      19
      36      19       5      20      21
      37      19       5      20      22
      38      20       5      20      23
      39      28      21      20      22
      40      29      21      20      23
      41      29      22      20      23
      42      23      20      23      24

Dihedral Coeffs

       1       0.19          3        180        0.5
       2       0.19          3        180        0.5
       3        0.2          3          0          1
       4        0.2          3          0          1
       5        0.2          3          0          1
       6        0.2          3          0          1
       7       0.31          3        180        0.5
       8        0.2          3          0          1
       9        0.2          3          0          1
      10       0.31          3        180        0.5
      11       0.29          1          0          1
      12       0.62          2          0          0
      13       0.05          3          0          0
      14       0.29          1          0          1
      15       0.62          2          0          0
      16       0.05          3          0          0
      17        0.2          3          0        0.5
      18        0.2          3          0          1
      19        0.2          3          0          1
      20        0.2          3          0        0.5
      21        0.2          3          0          1
      22        0.2          3          0          1
      23       0.29          1          0          1
      24       0.62          2          0          0
      25       0.05          3          0          0
      26        0.2          3          0          1
      27      0.284          3          0          1
      28        0.2          3          0          1
      29        0.2          3          0          1
      30       0.29          1          0          1
      31       0.62          2          0          0
      32       0.05          3          0          0
      33       0.29          1          0          1
      34       0.62          2          0          0
      35       0.05          3          0          0
      36      0.284          3          0          1
      37       0.41          1        180          1
      38       0.89          2          0          0
      39       0.05          3          0          0
      40        0.2          3          0          1
      41        0.2          3          0          1
      42        0.2          3          0          1
      43       0.14          3          0          1
      44        0.2          3          0          1
      45       0.14          3          0          1
      46        0.2          3          0          1
      47        0.2          3          0          1
      48        0.2          3          0          1
      49       0.18          3          0          1
      50       0.14          3          0          1
      51       0.18          3          0          1
      52       0.14          3          0          1
      53        0.2          3          0          1
      54       0.14          3          0          1
      55        0.2          3          0          1
      56       0.18          3          0          1
      57       1.55          1          0          1
      58       1.17          2          0          0
      59       1.07          3          0          0
      60       2.65          1        180          1
      61          0          2          0          0
      62       0.13          3        180          0
      63       2.65          1        180          1
      64          0          2          0          0
      65       0.13          3        180          0
      66       2.75          1        180          1
      67       0.26          2        180          0
      68        0.1          3          0          0
      69       1.36          1        180          1
      70       0.16          2          0          0
      71       1.01          3          0          0
      72       0.75          1        180          1
      73       0.17          2          0          0
      74       0.25          3        180          0

Dihedrals

       1      27       1       7       5       6
       2      20       1       7       5      16
       3      26       1       7       5      20
       4      23       1       8      10      11
       5      24       1       8      10      11
       6      25       1       8      10      11
       7      21       1       8      12      13
       8      22       1       8      12      14
       9       1       1       8      12      16
      10      51       2       1       3       4
      11      36       2       1       7       5
      12      44       2       1       8       9
      13      50       2       1       8      10
      14       5       2       1       8      12
      15      37       3       1       7       5
      16      38       3       1       7       5
      17      39       3       1       7       5
      18      45       3       1       8       9
      19      63       3       1       8      10
      20      65       3       1       8      10
      21       6       3       1       8      12
      22      57       4       3       1       7
      23      58       4       3       1       7
      24      59       4       3       1       7
      25      14       4       3       1       8
      26      15       4       3       1       8
      27      16       4       3       1       8
      28      17       5       7       1       8
      29       2       5      16      12       8
      30      28       5      16      12      13
      31      29       5      16      12      14
      32      30       5      16      18      19
      33      31       5      16      18      19
      34      32       5      16      18      19
      35      33       5      20      23      24
      36      34       5      20      23      24
      37      35       5      20      23      24
      38       9       6       5      16      12
      39      47       6       5      16      17
      40      52       6       5      16      18
      41      53       6       5      20      21
      42      53       6       5      20      22
      43      54       6       5      20      23
      44      46       7       1       8       9
      45      66       7       1       8      10
      46      67       7       1       8      10
      47      68       7       1       8      10
      48       7       7       1       8      12
      49      10       7       5      16      12
      50      48       7       5      16      17
      51      69       7       5      16      18
      52      70       7       5      16      18
      53      71       7       5      16      18
      54      55       7       5      20      21
      55      55       7       5      20      22
      56      72       7       5      20      23
      57      73       7       5      20      23
      58      74       7       5      20      23
      59      11       8      12      14      15
      60      12       8      12      14      15
      61      13       8      12      14      15
      62       3       8      12      16      17
      63       4       8      12      16      18
      64      49       9       8      10      11
      65      42       9       8      12      13
      66      43       9       8      12      14
      67       3       9       8      12      16
      68      43      10       8      12      13
      69      60      10       8      12      14
      70      62      10       8      12      14
      71       4      10       8      12      16
      72      11      11      10       8      12
      73      12      11      10       8      12
      74      13      11      10       8      12
      75       8      12      16       5      20
      76      11      12      16      18      19
      77      12      12      16      18      19
      78      13      12      16      18      19
      79      49      13      12      14      15
      80      42      13      12      16      17
      81      43      13      12      16      18
      82      43      14      12      16      17
      83      60      14      12      16      18
      84      62      14      12      16      18
      85      11      15      14      12      16
      86      12      15      14      12      16
      87      13      15      14      12      16
      88      18      16       5      20      21
      89      18      16       5      20      22
      90      19      16       5      20      23
      91      40      17      16       5      20
      92      49      17      16      18      19
      93      41      18      16       5      20
      94      56      21      20      23      24
      95      56      22      20      23      24

