LAMMPS (12 Oct 2011)
Scanning data file ...
  4 = max bonds/atom
  6 = max angles/atom
  17 = max dihedrals/atom
  1 = max impropers/atom
Reading data file ...
  orthogonal box = (1.762 -1.303 -3.108) to (13.479 9.547 4.965)
  1 by 1 by 1 processor grid
  65 atoms
  67 bonds
  129 angles
  224 dihedrals
  6 impropers
Finding 1-2 1-3 1-4 neighbors ...
  4 = max # of 1-2 neighbors
  8 = max # of 1-3 neighbors
  19 = max # of 1-4 neighbors
  20 = max # of special neighbors
65 atoms in group glc6mer
WARNING: No fixes defined, atoms won't move (verlet.cpp:52)
Setting up run ...
Memory usage per processor = 0.566299 Mbytes
---------------- Step        0 ----- CPU =      0.0000 (sec) ----------------
PotEng   = 2.110624212311990e+02 E_bond   = 3.202738450432256e+01 E_angle  = 6.488813857710481e+01 
E_dihed  = 4.160359933667406e+01 E_impro  = 9.952859417321431e-01 E_vdwl   = 1.299887318541102e+00 
E_coul   = 7.024812555282436e+01 
Loop time of 9.53674e-07 on 1 procs for 0 steps with 65 atoms

Pair  time (%) = 0 (0)
Bond  time (%) = 0 (0)
Neigh time (%) = 0 (0)
Comm  time (%) = 0 (0)
Outpt time (%) = 0 (0)
Other time (%) = 9.53674e-07 (100)

Nlocal:    65 ave 65 max 65 min
Histogram: 1 0 0 0 0 0 0 0 0 0
Nghost:    0 ave 0 max 0 min
Histogram: 1 0 0 0 0 0 0 0 0 0
Neighs:    1703 ave 1703 max 1703 min
Histogram: 1 0 0 0 0 0 0 0 0 0

Total # of neighbors = 1703
Ave neighs/atom = 26.2
Ave special neighs/atom = 11.6
Neighbor list builds = 0
Dangerous builds = 0
