LAMMPS (12 Oct 2011)
Scanning data file ...
  4 = max bonds/atom
  6 = max angles/atom
  17 = max dihedrals/atom
  1 = max impropers/atom
Reading data file ...
  orthogonal box = (0.602 -2.016 -3.933) to (14.899 9.367 3.483)
  1 by 1 by 1 processor grid
  65 atoms
  67 bonds
  129 angles
  224 dihedrals
  6 impropers
Finding 1-2 1-3 1-4 neighbors ...
  4 = max # of 1-2 neighbors
  8 = max # of 1-3 neighbors
  19 = max # of 1-4 neighbors
  20 = max # of special neighbors
WARNING: No fixes defined, atoms won't move (verlet.cpp:52)
Setting up run ...
Memory usage per processor = 0.554688 Mbytes
---------------- Step        0 ----- CPU =      0.0000 (sec) ----------------
PotEng   = 1.477549851622199e+02 E_bond   = 3.213277628631605e+00 E_angle  = 2.500781516140164e+01 
E_dihed  = 3.941556340588273e+01 E_impro  = 2.432804092658623e-01 E_vdwl   = 2.673821287499508e+00 
E_coul   = 7.720122726953861e+01 
Loop time of 3.09944e-06 on 1 procs for 0 steps with 65 atoms

Pair  time (%) = 0 (0)
Bond  time (%) = 0 (0)
Neigh time (%) = 0 (0)
Comm  time (%) = 0 (0)
Outpt time (%) = 0 (0)
Other time (%) = 3.09944e-06 (100)

Nlocal:    65 ave 65 max 65 min
Histogram: 1 0 0 0 0 0 0 0 0 0
Nghost:    0 ave 0 max 0 min
Histogram: 1 0 0 0 0 0 0 0 0 0
Neighs:    1703 ave 1703 max 1703 min
Histogram: 1 0 0 0 0 0 0 0 0 0

Total # of neighbors = 1703
Ave neighs/atom = 26.2
Ave special neighs/atom = 11.6
Neighbor list builds = 0
Dangerous builds = 0
