ITEM: TIMESTEP
0
ITEM: NUMBER OF ATOMS
65
ITEM: BOX BOUNDS ss ss ss
0.6019 14.8991
-2.0161 9.3671
-3.9331 3.4831
ITEM: ATOMS id fx fy fz 
    1 2.034719916010681e-01 -6.190010745572676e-01 -4.083193727531160e-01 
    2 2.593083065978708e+00 1.344377162074782e+00 3.749717297024295e-01 
    3 -7.410688524614482e-01 3.491276119207232e-01 -6.015999155722689e-01 
    4 -8.485423534886039e-02 1.376029445989791e+00 2.703362262744831e-01 
    5 1.034442678299280e+00 -1.307932002448053e+00 1.813181279195547e-01 
    6 1.701204017414641e+00 -1.685454333015846e+00 3.646566704544268e-01 
    7 8.244998269968381e-01 -1.703465600674401e+00 1.063858391032594e+00 
    8 1.275900301977190e+00 -2.512184631534068e+00 -2.055695628527388e+00 
    9 -1.113800240023004e+00 -8.571266973376386e-01 1.204069034703239e+00 
   10 -6.830044886180534e-01 6.938083998938582e-01 -2.422696187145112e-01 
   11 -1.916732170046032e+00 2.971735901702416e+00 1.216154027149571e+00 
   12 -2.854208169878785e-01 2.707540680582876e-03 -2.055668250418574e+00 
   13 1.098063971939607e+00 1.306138189600977e+00 1.320820214815204e+00 
   14 4.165475037547582e-01 -6.660601470145964e-01 -2.115830953485091e-02 
   15 2.208277807571326e-01 7.422490309280489e-01 -3.069204502800988e-01 
   16 -7.474464429301924e-01 1.506769039966460e+00 2.174400149312921e+00 
   17 -3.022140417789038e+00 2.294399752580566e+00 -2.975953746457943e-01 
   18 -1.497629300300040e+00 -7.504888422773298e-02 -2.037705213693892e+00 
   19 -1.355290346613160e+00 2.359431784560012e-01 2.875071429139303e+00 
   20 1.176576391647063e+00 -8.038212915518167e-02 -8.610341401566707e-01 
   21 -1.345968547875778e-01 5.243945418188287e-01 -3.594924456022009e-01 
   22 -5.785556729905159e-02 9.167636114209716e-01 7.288865642892822e-02 
   23 6.689279623778832e-01 2.873985442968936e-01 2.159921837456467e-01 
   24 6.668603988392388e-01 1.246475541396262e+00 -1.262070525335243e-02 
   25 3.265534668311894e-01 -3.821863623600008e+00 4.403279017955259e-01 
   26 -1.321059942171657e+00 2.184907251920663e+00 1.284864076401870e+00 
   27 1.197847283465004e+00 4.948798148725269e+00 -1.697995839662423e+00 
   28 -3.332451284767065e-01 -2.708830642907024e-01 -2.438968219022209e+00 
   29 3.545334269719558e-01 -9.399108980101173e-01 1.007818173602568e+00 
   30 2.871034445323470e-01 -2.539210312042794e-03 -9.061553708347045e-01 
   31 9.164515209828010e-01 -4.704893529845086e+00 -1.941412450980895e-03 
   32 4.966889834347099e-02 9.147368499490939e-02 -2.124527887167143e-01 
   33 -7.812450476076712e-01 -2.458190652470597e-01 1.086874764032809e+00 
   34 1.097305163016490e+00 -1.554578309731077e-01 1.622428275492710e+00 
   35 -1.338160491594519e+00 5.720699124120175e-01 1.223085680379986e+00 
   36 -9.401665143825506e-01 -1.943372318465264e+00 -1.317580621432188e+00 
   37 4.958673221194038e-01 -1.046292760296978e+00 -7.527726166588912e-01 
   38 -9.248714416866644e-01 1.633508595601211e+00 4.518065057328546e-01 
   39 -1.232395028131231e+00 2.541304305940590e-01 -8.506711414102082e-01 
   40 2.355627481893329e-01 1.290215486180210e-01 1.482371586064221e-01 
   41 1.456158434673004e+00 -1.785647046289567e+00 1.170515535144068e+00 
   42 -1.254609821261450e-02 -1.311503212135154e+00 -2.116292336271330e-01 
   43 1.249244654124737e+00 -1.067151173935595e+00 -2.336278997417660e-01 
   44 -2.765555957022747e-01 -1.108312117434046e+00 1.512506679398467e+00 
   45 1.711575723123469e+00 1.261431309604126e+00 -1.019774740882330e+00 
   46 -5.323175283293741e-01 -1.895237275470463e+00 2.541417302508495e-01 
   47 -1.578917951263826e+00 1.074596071637427e+00 -8.083314372121343e-01 
   48 -2.377055836578600e-02 3.941980581152854e-01 -4.380341964137416e-01 
   49 -1.332522081181923e+00 -1.378677286958294e+00 -3.059448825932733e-01 
   50 6.688559518392243e-01 2.675172424439054e-02 -1.223276609859098e+00 
   51 -7.704759930477516e-01 5.614362386032474e-01 -9.567212746187637e-02 
   52 8.429727927569204e-01 -1.258502932524654e+00 -3.689661703424644e-01 
   53 -1.673410719725686e+00 -2.199774411068337e+00 2.532916330935506e+00 
   54 2.885169005293982e-01 1.071999674707128e+00 -3.607802332740729e+00 
   55 1.117992887707418e+00 1.933596348592427e+00 -2.046149544107268e+00 
   56 1.422802277361991e+00 1.173177376827352e+00 -2.516892306647169e-01 
   57 -2.632951180179574e+00 -1.517953375964285e+00 3.477085552145038e-01 
   58 1.720267717777992e-01 -6.119172742464458e-01 1.643165489333907e+00 
   59 2.845059022458066e-01 5.009870665952343e-01 1.216105315152303e+00 
   60 1.043496642184753e+00 1.715091784061122e+00 -6.945219911796621e-01 
   61 -4.425262177268607e-01 4.818637142961029e-01 -9.549370508291171e-01 
   62 -4.057447056927481e-01 5.575250089283228e-01 1.714634605685257e+00 
   63 -1.504817290861767e+00 -5.161733807093973e-01 -2.763657428652175e+00 
   64 1.749869564769508e+00 6.745155143271724e-01 4.089814878910182e+00 
   65 8.482215784160960e-01 2.491403316087446e-01 -6.188561850995691e-01 
