ITEM: TIMESTEP
0
ITEM: NUMBER OF ATOMS
65
ITEM: BOX BOUNDS ss ss ss
1.7619 13.4791
-1.3031 9.5471
-3.1081 4.9651
ITEM: ATOMS id fx fy fz 
    1 -3.230398923367432e+00 2.682287032374712e+01 4.392445511679095e+01 
    2 -1.695249621462379e+01 1.833713578039324e+01 -2.053303433026436e+01 
    3 8.798505839698255e+00 -4.516490463564043e+01 -1.044137528937220e+01 
    4 1.648259053468355e+01 -4.206058337661105e+00 -1.122700503289845e+01 
    5 -2.775464641520209e+01 1.606492009894549e+01 1.268628840548702e+01 
    6 -1.400888841081718e+00 1.800651804507923e+00 -6.412537988321395e+00 
    7 3.028680887952453e+01 -1.706469128154093e+01 -7.828618585384871e+01 
    8 5.004199582812090e+00 -7.494211091038158e+00 8.718077527376725e+00 
    9 -1.561640410842674e+00 -1.262378654342761e+01 1.841383203515997e+01 
   10 -1.560562631081510e+01 4.174013468509336e+01 5.605335499626343e+01 
   11 -1.058401593801574e+01 9.562159794744133e+00 1.479764496770349e+00 
   12 1.655703136104898e+01 -3.890422435974778e+00 -1.464731136519812e+01 
   13 1.501796709964307e+01 2.141237574126403e+01 1.083240503059558e+00 
   14 -4.444711205512183e+01 -4.194582374484072e+01 3.063806847569687e+01 
   15 2.474374980709074e+01 -1.581333135769565e+01 -1.714421845519672e+00 
   16 -2.558731146049970e+00 1.906012014152916e+01 8.788641694465129e-01 
   17 -8.709114946643204e+00 1.850515966505004e+01 -6.873264048794141e+00 
   18 -1.991194476517505e+00 -2.523184644848094e+01 -4.277228336765988e+00 
   19 1.948022633748154e+01 -9.481474464208258e+00 1.295316325520898e+01 
   20 2.094846897592166e+01 -1.500935265025552e+01 6.849782010477203e+00 
   21 -1.267677775223257e+01 3.489807857316235e+00 -2.404378691939177e+00 
   22 -4.084830332097683e+01 2.132348596104983e+01 -2.870405132318271e+01 
   23 2.446924481623284e+01 -9.017263340341766e-01 1.952477731532616e+01 
   24 8.913954771302441e+00 1.336072647924685e+01 -1.827224981825551e+01 
   25 3.574257428209319e+01 -5.725081003368344e+01 6.549699099714315e+00 
   26 -1.705813647446972e+01 3.081131986143114e+01 -1.014350183827551e+01 
   27 -1.795685981936792e+00 5.449942092675851e+00 -1.718992803969003e+01 
   28 6.978468760200221e+00 3.310456444573385e+01 5.621212830446965e+00 
   29 -3.381845036637658e+00 1.355371328582477e+00 -7.569816433241958e+00 
   30 -7.480983416957374e+00 -1.393518696871962e+01 1.124730608041268e+01 
   31 -1.258638606581141e+00 -1.296438390293752e+01 2.198653367739676e+01 
   32 2.849175273883045e+00 -9.140279827421905e+00 1.194332875959147e+01 
   33 -6.311165547341460e+01 -5.708430879112304e+01 -4.108233956743865e-01 
   34 7.579251175590661e+00 1.879846700349926e+01 -2.130810915434508e+01 
   35 2.205314046709308e+01 2.030541670868533e+01 1.676584684882118e-01 
   36 2.176976495603240e+01 2.002136537514411e+01 2.785073423040264e+00 
   37 -9.484129646661213e+00 -1.606453343503466e+01 1.326378014495767e+01 
   38 4.312428663589771e+00 1.849103817654383e+00 -1.142706031566749e+01 
   39 4.169692941235164e+01 3.183224167585694e+01 -7.420300535503419e+00 
   40 -1.513236335169547e+01 -1.200769276774378e+01 -2.753928662156713e+00 
   41 -5.714090239118626e+01 2.014309345371020e+01 -2.621149743282591e+01 
   42 1.577064718300295e+01 -6.341929645862071e+01 4.831409928634410e+01 
   43 -1.750776786484274e+01 5.135874562904347e+00 1.229263408909691e+01 
   44 6.522233870427968e+00 3.181671198005543e+01 -1.045081875173157e+01 
   45 4.883840452868770e+01 1.183942341711448e+01 2.561689429183220e+00 
   46 9.372903797932098e+00 -4.102684366993251e+00 -1.020537391646335e+01 
   47 -5.428602595714056e+00 1.427549309072175e+01 5.019921267458989e+01 
   48 -4.518918744339962e+00 -1.177070023473984e+01 -1.553140571294066e+01 
   49 5.941949861862631e-01 -1.383906006122376e+01 3.888925495012581e+00 
   50 -1.420322650677714e+01 2.235158670342425e+01 -7.373843987528809e+01 
   51 1.454522741429224e+01 -4.914257636123738e+00 -3.542697798117218e+00 
   52 1.636644433662156e+00 3.312948308384528e+00 8.730510180324094e+00 
   53 -5.304952852704158e+01 1.297139336869944e+01 6.640740774819037e+01 
   54 2.052540064254768e+01 -2.559648929818858e+00 -3.205923341780504e+01 
   55 -4.843416739208754e+00 -3.283976993805400e+01 -4.211836220243244e+01 
   56 4.691260269600686e+00 1.333898384794838e+01 2.684770233578089e+00 
   57 6.006400646510913e+01 -3.644701344113636e+01 3.006322681661125e+01 
   58 -3.741767296666738e+00 -7.032820816858042e+00 5.907400172631878e-01 
   59 2.295317660032906e+01 7.113299088676730e+01 -1.643480960176986e+01 
   60 -3.284256542849270e+01 -3.684303741673516e+01 2.715073316160957e+01 
   61 -1.088746050289748e+01 -2.804047351088637e+00 -1.062495425397212e+01 
   62 -1.692298341906571e+01 1.192268971356850e+01 -3.127541680975080e+00 
   63 5.717034707167155e+00 4.167434298282362e+01 2.000050883048679e+01 
   64 -9.836337115790872e+00 -3.819137084664928e+01 -3.241295433945669e+01 
   65 -6.967754023350406e+00 -2.884340408769003e+00 -1.178117470709087e+00 
