ITEM: TIMESTEP
0
ITEM: NUMBER OF ATOMS
2489
ITEM: BOX BOUNDS ss ss ss
9.5289 57.0681
10.4559 49.4261
16.1139 49.9871
ITEM: ATOMS id fx fy fz 
    1 -3.302878317783717e+01 2.197860591596985e+01 1.292366551056211e+00 
    2 9.464973704108113e+00 2.529186521162809e+01 8.926029955625378e+00 
    3 2.143497145306714e+01 -2.581716828069489e+01 -4.023965879088466e+01 
    4 -1.961479697464211e+01 -2.053648796282360e+01 9.471502841723417e+00 
    5 -2.281223311420133e+01 1.321289522831746e+01 -8.183542456056781e+00 
    6 1.392159155506809e+01 -1.897940354243532e+01 -1.376606784310751e+01 
    7 6.877603663972326e+00 4.989980441741592e+00 -2.720646331836341e+01 
    8 -9.014751510625459e+00 1.643850760264709e+01 -1.371923983535143e+01 
    9 3.857315320394684e+00 1.987545895397590e+01 2.002896162553531e+01 
   10 1.892462919474295e+01 7.739947526079284e+00 2.808594035556735e+01 
   11 7.101206699576221e+00 -2.974456044394632e+00 3.785340739449996e+00 
   12 -4.295065050579794e+00 -1.496867019501803e+01 2.220282755644186e+00 
   13 -2.973166357029579e+00 -9.504043669448111e+00 -2.306034754141804e+00 
   14 2.029041815343339e+01 7.329227061459857e+00 2.264008191233951e+01 
   15 2.458264533507276e+01 7.644801194295908e+00 -2.092166405951391e+01 
   16 -3.407998917863462e+01 -2.910746369138110e+01 9.054896538568132e+00 
   17 -2.348945593654693e+01 8.295015892052886e+00 -1.681381351960480e+01 
   18 1.106434824985533e+01 1.701147401073798e+01 2.371696690306916e+01 
   19 2.175629728767153e+01 -2.137890679346377e+01 -2.385259076135733e+01 
   20 -3.004292956636013e+01 2.018421117347235e+01 -4.021488702916228e+01 
   21 -2.885867196127703e+00 -1.341866558361684e+01 -8.455772565549221e+00 
   22 -1.298904863378269e+01 -2.672688956877285e+01 2.229418285642439e+01 
   23 2.084826280664240e+01 3.333147028136553e+01 1.096366132086104e+01 
   24 1.168855800632339e+01 1.499256391806067e+01 -1.990380351664840e+01 
   25 -1.272612140123003e+01 -3.722208299157127e+01 -1.450531627653043e+01 
   26 -2.696565508704812e+01 6.797239943564135e+00 2.405891352302155e+00 
   27 5.099593053034473e+00 6.392792473737510e+00 4.434567728332225e+00 
   28 -6.265231008559140e+00 3.054156976161257e+00 -8.044185111135736e+00 
   29 2.295360995666085e+00 5.091298532883244e+00 -1.441720811722104e+01 
   30 -7.707761726200506e+00 -1.774192206798872e+01 6.023242534594031e+00 
   31 -4.992466025037388e+00 2.537104233248501e+00 -2.773658249481199e+00 
   32 1.340901097605554e+01 8.366636623505705e+00 -5.029172047841878e+00 
   33 1.792516667765672e+01 5.134416360329880e+00 5.811422503606700e+01 
   34 -3.223023233413883e+00 2.539900758980475e+01 -1.946520807892409e+01 
   35 -4.473485392784548e+00 -2.930875614611500e+01 -1.542364798095802e+01 
   36 -3.092814815574294e+01 -4.496545533687763e+00 -2.921338521508915e+00 
   37 2.625371631830446e+01 1.858845774286797e-01 3.717137467988451e+01 
   38 2.319695340633473e+01 3.250537138521939e+01 -7.760056547514363e+00 
   39 4.585053439452398e+01 -4.836320952909447e+01 -2.084244968129738e+01 
   40 -2.238078085366166e+01 2.258050988887576e+01 6.835398190347288e+00 
   41 5.693162785361741e+01 6.714388487670931e+01 -1.792511582970011e+01 
   42 -2.288488058257380e+01 -2.962743569657555e+01 -1.123481292616143e+01 
   43 7.411640333909601e+00 -1.010386696141042e+01 1.053439785729173e+01 
   44 -1.694771550035193e+01 -8.876088280757845e+00 -1.001955924345362e+01 
   45 -3.187625660699601e+00 1.287537957370570e+00 -4.055619096218992e+00 
   46 6.509896708176045e+00 2.004176860220498e+01 -3.215107935802497e+01 
   47 5.136354643208167e+00 -1.684474238657797e+01 1.502881470280554e+01 
   48 9.840562699717287e+00 -3.267410335419927e+01 1.892881567487120e+00 
   49 -4.681491313191098e+01 2.022423926403236e+01 -9.529037978991992e+00 
   50 -3.915881953894316e+01 -6.383909310660617e+01 1.622850029444718e+01 
   51 1.820743685442389e+01 1.851324724484755e+01 1.053957225076338e+01 
   52 3.237243833219898e+01 1.681130410576501e+01 3.423168351787216e+01 
   53 -9.051474030806551e-01 2.575796427754089e+00 -8.482493362339817e+00 
   54 1.938885118313484e+01 6.589120328623169e+00 -1.025637757900937e+00 
   55 1.467799027408091e+01 -7.127253833177748e+00 1.088658199743502e+01 
   56 -4.589474541280306e-01 1.746487873816710e+01 1.444306059042148e+01 
   57 -8.037677780157230e+00 -2.581608609279820e+01 -3.731489373157467e+00 
   58 -7.653855183237286e+00 -4.229841607236823e+00 -6.864935533348624e+00 
   59 -8.858373829471502e+00 -4.692317013030224e+00 1.120477259400655e+00 
   60 1.485380833964490e+01 1.329927947585595e+01 -2.711776759319112e+00 
   61 -1.507974289724894e+01 3.701890359705351e+00 -1.503937548620650e+01 
   62 -9.892891756914514e+00 2.638384629640167e+00 2.152696736783990e+01 
   63 4.280329984996762e+01 1.085931486425849e+01 6.256363307210207e+01 
   64 -1.297657685720269e+01 7.077995308637912e+00 -1.677817322077069e+01 
   65 -1.222760453924207e+01 -1.702451583600140e+01 -7.630486936266514e+00 
   66 3.180387366401161e+00 9.396676199143018e+00 -1.912280779915847e+01 
   67 -3.178835959276866e+01 1.542902728987549e+01 3.508310076492206e+01 
   68 3.175890340844270e+01 -1.737410778253456e+01 -3.304793782474329e+01 
   69 -4.521881543994877e+01 -9.551625146058635e+01 9.166247234110507e+00 
   70 2.051892737100281e+01 5.840430074120686e-01 -1.770187172292303e+01 
   71 -2.404402859003110e+01 -2.501073292074199e+01 2.402803017443990e+00 
   72 2.022773990751849e+01 5.178533115328565e-01 -1.223365889504470e+00 
   73 3.261798437168623e+01 6.109314580404899e+00 -3.293848279267215e+01 
   74 -1.509622970456400e+01 1.149565707238282e+01 8.378982982678627e+00 
   75 2.479213667913153e+00 6.315427727005207e+00 5.516318726452995e+01 
   76 -1.184899652006610e+01 -1.228679897100825e+01 -1.086825323467454e+01 
   77 -5.458019366270667e+00 1.100712956142262e+01 3.435858356548185e+00 
   78 1.068737708573628e+01 -5.863016399479999e+00 -1.671873949773110e+01 
   79 6.823765293251881e+00 1.999025481443948e+01 -4.597164588577828e+01 
   80 -7.889491809120329e+00 -3.336019179028855e+01 1.944080050025467e+01 
   81 -1.274394713488576e+01 5.362894581286930e+00 -5.334163201437099e-01 
   82 9.116334626440459e+00 -1.291976523898275e+00 -2.273394333756200e+01 
   83 1.024445178439496e+00 -1.595181836411924e+00 6.573581097324736e+00 
   84 4.915491578187869e-01 -9.531543486151465e+00 2.226483074865260e+01 
   85 -3.419937385868528e+01 2.451690552951189e+00 1.322279252752810e+01 
   86 6.534949451608274e+01 9.020021199386954e+01 2.823691522124290e+01 
   87 -2.134591773662867e+01 -9.797762681138098e+00 -2.320033653128545e+01 
   88 -2.257858737110775e+01 -6.256110814785138e+00 -4.681283846181833e+01 
   89 -5.068332096182757e+01 8.944960408289395e+00 1.267341818999830e+01 
   90 3.478229583048533e+01 -3.038774180926744e+01 -1.286870551425595e+01 
   91 -4.542692666295300e+00 -6.804865537560316e+00 1.205515417136859e+01 
   92 3.524821393515788e+01 -2.360218846482906e+01 1.841858593657929e+01 
   93 -1.972470001026450e+00 -2.149477956667869e+01 -2.691912987561397e+00 
   94 -2.299645532846190e+01 2.181934099224392e+01 1.293070620251967e+01 
   95 -9.372664104372056e+00 1.691825216196014e+01 -1.358296051778073e+01 
   96 3.669304940189966e+01 -5.374431076485192e+01 -5.412695323112662e+01 
   97 6.420223958184823e+01 -1.237865631914208e+01 1.220218282488830e+01 
   98 -1.515843778234376e+01 9.259245244744645e+01 -1.738009670985693e+01 
   99 -2.107688719736186e+01 -1.915742120396361e+01 -8.099906248730317e+00 
  100 6.592117528799496e+01 -3.436086950045794e+01 -1.007153553859737e+01 
  101 -1.617958131456372e+01 8.360174096749047e-01 -1.078473360394316e+01 
  102 -4.452746231238545e+01 3.472824340179708e+01 8.497564866901308e-01 
  103 8.796056827280932e+00 4.034340064421666e+00 -1.346431417940463e+01 
  104 1.291281891179054e+01 -1.410343472146890e+01 1.628652209588255e+01 
  105 1.428169298547133e+01 -1.274989300279329e+01 -4.410158323858622e+00 
  106 -4.730901970662118e+01 -1.680214940081422e+01 1.100932386946518e+01 
  107 1.833920191902252e+01 -3.374910479216559e+01 -3.893852557222914e+00 
  108 2.991115909583682e+01 3.367356240962292e+01 -4.237870655462112e+01 
  109 1.375588530670221e+01 -1.106135652412705e+01 -2.488704267621687e+01 
  110 -1.894904001559184e+01 -6.055561447863493e+00 1.774664972971281e+01 
  111 -2.398373486719482e+00 5.208203420030926e+00 4.420212909709355e+00 
  112 1.510257099319695e+01 -1.015284816013153e-01 -1.553541745227506e+01 
  113 -2.637796491374753e+00 3.171435672532902e+00 3.378200556967414e+00 
  114 -6.283857613977038e+00 -1.581166875895470e+01 -4.387510346293988e+00 
  115 -4.445050444066364e+01 -4.016436415477584e+00 2.216010568879216e+01 
  116 1.449784849064970e+01 -8.220906375771737e-01 -1.974803895974688e+01 
  117 1.189518340243172e+01 1.985173214931844e+01 -1.969025091937999e+01 
  118 4.928936119781714e-01 -6.626350230355271e+00 4.523388029864821e+00 
  119 -2.042524648197000e+00 9.894228079509411e-01 4.280364171356052e+00 
  120 1.226170702509106e+01 -1.526219045193563e+01 -1.502754035372320e+00 
  121 -2.128633916707889e+01 -3.302425603817076e+01 2.008983649248822e-01 
  122 -5.706453724500086e+00 6.679926060962035e+00 -1.059581074191469e+01 
  123 -7.352509979442633e+00 3.751734016037561e+00 3.423149608697995e+01 
  124 1.245399251869777e+01 7.670277043183329e+00 -2.564694257436548e+01 
  125 1.147474706715603e-01 -1.323015879226780e+01 -4.233386675615638e+01 
  126 -4.505868775873796e+01 -3.879782704347684e+01 -1.158378603636333e+01 
  127 5.674397654393270e+01 -6.285810937123948e-02 -3.728330609154108e+01 
  128 -5.782458519995198e+01 1.728640529688859e+01 2.756021935548705e+01 
  129 -6.111180132324534e+01 -4.032343191167443e+01 4.825917836986974e+01 
  130 3.405300785684098e+01 3.136877514000365e+01 -3.896487304494943e+01 
  131 1.052305360143182e+01 -3.069538675313549e+00 -5.830469515498818e+01 
  132 -1.809196562319624e+01 1.220916925987190e+01 1.556708249888020e+01 
  133 1.241809471277133e-01 2.134375505912814e+01 1.215392068377719e+01 
  134 1.952713584023732e+01 -1.377824903581556e+00 2.005393825019657e+01 
  135 4.411303753376707e+00 -1.327007474699663e+01 2.772768255332005e+01 
  136 -3.303942855642367e+01 2.297365941114263e+01 1.336928512978880e+01 
  137 2.580864358679941e+01 1.683909189194420e+01 -1.804066774861839e+01 
  138 6.372179064896640e+00 -2.086268637688386e+01 -2.438340772938177e+00 
  139 -4.180413836850809e+01 -2.358727290132292e+01 -7.601050839400516e-01 
  140 1.838460616306252e+01 6.890841958648010e+00 -2.746830894649269e+01 
  141 3.199943853368598e+01 7.308020060820590e-01 -1.847416454960232e+01 
  142 -6.888902215845587e+00 -3.405403401386625e+00 1.385403153293688e+00 
  143 1.842416354521709e+01 -5.291979930841219e+00 2.241762657893316e+01 
  144 -1.240433348578893e+00 -5.307135910712907e+00 -2.111118954108922e+00 
  145 5.315217456260289e+00 3.042575940549249e+00 -5.153276631659637e+00 
  146 6.759889143300305e+00 2.520765535448786e+00 3.874246319833103e+00 
  147 -3.677364399867844e+01 2.801568015231907e+01 3.285628198208982e+01 
  148 -2.856903727289721e+00 -7.349321184165734e+00 -2.615264705429676e+01 
  149 5.577006359261664e+00 6.054213158297410e+00 -7.961257120299441e-01 
  150 1.531531292138492e+01 -1.983865654025031e+01 9.024808186494038e+00 
  151 3.567637089434922e+00 -5.227908610271988e+01 3.995639426215087e+01 
  152 4.041663531109616e+01 4.857323312775917e+01 -4.197326209573095e+01 
  153 -3.366682142564104e+01 2.440018437773414e+01 -3.598163980629815e+01 
  154 1.254878043192179e+01 -8.304707704178583e+00 6.301565185842278e+00 
  155 -2.455134266400972e+01 -1.046319703152114e+01 5.922713846126327e+01 
  156 4.499036306513867e+00 -1.248704013094994e+01 1.903421783205555e+00 
  157 -4.132556559039323e+01 -3.103369008098657e+01 -1.234512277676470e+00 
  158 -1.366245186544636e+01 3.056553352000792e+01 -1.274663294230483e+00 
  159 4.462585099230881e+01 -8.135633025828115e+00 -2.659965505323375e+01 
  160 1.964219540126343e+01 -4.919750782969234e+01 -3.464699114499930e+01 
  161 -8.864949203482128e+00 3.962240866952448e+01 4.952257532228983e+01 
  162 1.368049558282009e+01 4.712315347584785e+01 -1.879080565006254e+00 
  163 -8.015097876986541e+00 2.435978401727306e+01 -6.683080888843376e+00 
  164 1.728575153604047e+01 -1.789490527569893e+00 -6.171052912753202e+01 
  165 -6.182062883825770e+01 1.245970636715934e+01 3.718301141396814e+01 
  166 1.168343529718786e+01 1.096541757407284e+01 6.733513530805779e+00 
  167 1.949023110027877e-01 -4.392895365373764e+01 3.235122792089607e+00 
  168 -8.699069959351620e+00 1.124311473158447e+01 1.871672675524389e+00 
  169 2.918311327995856e+01 -2.066117352049267e+01 -3.904325482386205e+01 
  170 -1.365644124419468e+01 8.909841076346485e+00 1.424842612622534e+01 
  171 7.388583616643152e+00 1.097900451576253e+00 2.670176326786780e+01 
  172 1.015661694196096e+00 -3.254722615884820e+01 -9.697587751645672e+00 
  173 -1.050135204313544e+01 -2.031527462891002e+00 6.518209871733231e+00 
  174 -1.336047970338456e+01 8.734168029740310e+00 -2.056596424811420e+01 
  175 -2.204354279785343e+01 1.913027920086746e+01 1.385981627623730e+01 
  176 1.277686579490918e+01 -7.142115725593289e+00 1.624490971567991e+01 
  177 -3.304178406926291e+00 6.826251429800447e+00 -7.840820022252583e+00 
  178 -2.406232962177452e+01 -3.324557307235412e+01 -7.599501998062850e+00 
  179 8.157834225574369e+00 2.052765200274196e+01 1.349028467501591e+01 
  180 -5.624828514847607e+00 -8.268488639518895e+01 -1.629642038696690e+01 
  181 -3.484025781710754e+01 4.533242394474610e+01 2.162664510115608e+01 
  182 -6.784830002326689e+00 9.714599951892520e+00 1.992921354824464e+01 
  183 -4.224599852791983e+00 7.441910313263133e+00 -7.533832967446969e+00 
  184 -4.043526338171120e+01 1.079370708358600e+02 2.310219355710836e+01 
  185 2.054302527332477e+01 -5.637530659069789e+00 -2.537110755509639e+01 
  186 1.193623222092096e+00 2.596738969281723e+01 -4.171018108482372e+01 
  187 -7.925410991116802e+00 -3.854255201742782e+01 2.449408662797364e+01 
  188 7.989685364983116e+00 5.405621837448590e+01 -1.311698253009277e+01 
  189 -6.703471432654029e+00 -3.094892454836338e+01 -1.856628075243021e+00 
  190 2.185141654734965e+01 1.221563009315307e+01 -2.420734688638245e+01 
  191 -1.407265924404538e+01 2.030590694066547e+01 3.849523793973989e+01 
  192 1.620569663426873e+01 -1.815560559809382e+01 -1.758867567267454e+01 
  193 -3.189714117742968e+01 9.774145055174035e+00 -2.732583345712651e+00 
  194 1.590547988852597e+01 -2.047387472521082e+01 -1.780192953389936e+01 
  195 1.193390908246153e+01 3.449449092501239e+01 5.735336123927100e+00 
  196 2.622268249968683e+01 -2.602529109007954e+01 -1.134104511483125e+01 
  197 2.846675315054164e-01 9.802642153217104e+00 -3.470580834081540e+00 
  198 -1.908259135714456e+01 4.258192144680263e+00 4.512134285560605e+00 
  199 3.617428098771962e+00 3.192241281073020e+01 2.269432678157004e+01 
  200 1.089967953784346e+00 1.125463694796593e+01 -1.545939100002333e+00 
  201 -1.381772393391911e+00 5.385723601992625e+00 -5.422888363941021e+00 
  202 5.139563218757327e+00 -2.490165655854479e+01 4.758939968452082e+00 
  203 1.920787519908601e+01 9.321080717072912e+00 1.993246054246777e+01 
  204 5.892109266651103e+00 -8.516126754588957e+00 8.556502022355413e-01 
  205 5.387576090640817e+01 -1.011618189109381e+01 -6.684491479861079e+01 
  206 -7.906510627583585e+00 1.054645506932015e+01 2.464639465952784e+01 
  207 -3.332073961155575e+01 -2.747323873501782e+00 -3.130241906950470e+01 
  208 1.782187925175612e+00 1.870987594688402e+00 3.341733690672189e+01 
  209 -1.011556783120136e+01 2.558282595976674e+00 -7.059505077698772e+01 
  210 2.160475928437053e+01 -5.765949550577822e+00 1.761355305141559e+01 
  211 3.196337345014708e+01 3.700281534268016e+01 1.118580717800087e+01 
  212 -2.238360850330067e+01 5.906384516650381e-02 -8.324946138268613e+00 
  213 -9.560109269383261e+00 -1.310841698731030e+01 1.632694755030823e+01 
  214 8.071697021240151e+00 2.317445620636545e+00 2.204173052393305e+00 
  215 -1.187763273417015e+01 4.354994439969721e+01 3.423678902377025e+01 
  216 -1.913679021849778e+01 -3.996447948688697e+01 -2.709056963167613e+01 
  217 6.154746547352866e+00 -2.136671067952670e+01 2.272747812009522e+01 
  218 2.161560552192978e+01 -2.522629226936497e+01 9.761053284263351e+00 
  219 -1.111137705440888e+01 -5.246265963360051e+00 -1.052441545858545e+01 
  220 2.053169280553183e+01 2.177156189260370e+01 -4.143879416579218e+00 
  221 -1.828453702249586e+00 1.225164376995428e+01 1.278865882540850e+01 
  222 4.573495872917823e+01 2.266916599152440e+01 1.898630759035020e+01 
  223 -3.969344893063496e+01 3.010687752764611e+01 -5.698971878043153e+01 
  224 2.814932814967131e+01 -4.468730535133166e+01 5.012669934452801e+01 
  225 1.123449422661167e+01 -2.091272051119283e+01 4.521223635975905e+00 
  226 -1.207351948524104e+01 -3.554006392392849e+01 -2.632914681313704e+01 
  227 9.562739441240547e+00 1.713797046642334e+01 -6.927724566592165e+00 
  228 -4.927112049060371e+00 4.992005369306524e+00 1.816991087619934e+01 
  229 -3.054893008923830e+00 9.408477532749595e+01 3.874903512975056e+01 
  230 4.404794312385846e+00 -7.111542919674136e+01 -1.824853611753921e+00 
  231 -2.130500875790050e+01 -6.873408493733004e+01 -2.495546005748771e+01 
  232 -8.682347694049703e+00 -1.642411916511269e+01 5.241592322341967e+00 
  233 8.470837512433638e+01 9.339032839736014e+00 2.893545188708076e+01 
  234 -1.892211396612624e+01 -4.099031361975937e+00 -5.257110190487503e+00 
  235 -1.647607088684066e+01 1.966660113189000e+01 -3.906409279663289e+01 
  236 -7.038776180480526e+00 -8.565707026273557e-01 1.571574960623294e+01 
  237 -5.038231360351723e-01 1.085567959617319e+01 1.036734610493614e+01 
  238 2.719253086446841e+01 -1.606606282528721e+01 8.080150439506884e+00 
  239 -1.055212119574660e+01 -6.307231380377018e+00 1.135639731167600e-01 
  240 6.617940481104607e+00 6.612917875140560e+00 -1.409913789370268e+01 
  241 1.138959909568649e+01 3.053796412346376e+00 1.477325898315786e+01 
  242 -3.994533072965373e+01 3.683544247506624e+01 5.616547156509488e+00 
  243 2.070514944823795e+01 -3.588432429549282e+00 4.498933981410761e+00 
  244 1.010794151955620e+01 -2.932338864097019e+01 -2.971999431727101e+01 
  245 -1.945555899314263e+00 -8.678294703397885e+00 2.201513302729164e+01 
  246 -6.701578821367931e+01 3.713485021011675e+01 -5.820002647584990e+01 
  247 -2.059819409303569e+00 9.342418392611929e+00 3.498356787732531e+01 
  248 4.116390262182946e+01 -2.215415920937058e+01 6.499621877949110e+01 
  249 3.064085159198905e+01 -2.358918911081908e+00 -1.034202602910761e+00 
  250 1.632094177962314e+00 -4.196796642284879e+01 -2.609242246814951e+01 
  251 -2.135424211391645e+01 3.240720869634293e+01 -1.812527072594701e+00 
  252 3.272723875782686e+01 4.258818329324054e+01 1.866127622547321e+01 
  253 -3.235960252528750e+00 -3.249798348331290e+01 -9.927812383544097e+00 
  254 -2.692590188922300e+01 -7.574083839046429e+00 4.598716749587754e+00 
  255 4.687340851456891e+01 -2.796041108438495e+01 5.792524164766268e+01 
  256 -2.201492734708342e+01 2.855444564622034e+01 -7.487247306373510e+00 
  257 -2.517858081762190e+01 1.209787904777999e+00 -4.118989532571655e+01 
  258 -1.092375951065523e+01 -3.013072209177803e+00 -3.279986185819629e+01 
  259 6.764276860736574e+00 -2.170344813473615e+01 -1.114937697848908e+01 
  260 5.661848703758318e+00 1.140648382028609e+01 1.028218100631788e+01 
  261 5.782707445709508e+01 -1.408731268434747e+01 -2.732999991791976e+01 
  262 -2.945292595844901e+01 -1.479810662095299e+01 -1.103008806373005e+01 
  263 -6.345837696425021e+01 -3.633250524690137e+01 -4.394736464732298e+01 
  264 2.587432404521189e+01 4.426343922217058e+00 2.916524131090165e+01 
  265 4.092690025075475e+01 9.582849733003318e+00 1.580799642245398e+01 
  266 -1.719959703950711e+01 3.344902312637550e+01 3.730958123482720e+00 
  267 2.711677917761509e+01 5.556430690399841e+00 -2.044420541146469e+01 
  268 -5.340182336807296e+00 -1.707259797059923e+00 -6.620242381775862e+00 
  269 -8.596038365632182e+00 1.814750584848111e+01 2.233587431729214e+00 
  270 -3.158111674624746e+01 5.144389463840300e+00 -5.405722866562181e+01 
  271 -9.664345927102620e+00 6.428634300402683e+01 1.890454009807206e+01 
  272 -2.708807677571617e+01 -1.555506609637646e+01 4.166645415667990e+01 
  273 4.907951078237146e+01 1.086697372509276e+01 -2.663122102885447e+01 
  274 7.004965217076042e+00 1.326940529969046e+01 4.228275127804374e+01 
  275 2.194496932348322e+01 -4.724281644285210e+01 1.966060285828495e+01 
  276 3.531810171169435e+01 -1.066154214874365e+00 1.449832351873655e+01 
  277 -4.651460205317409e+01 -5.536596331606757e+01 -1.902650783729234e+01 
  278 1.987068016960715e+01 3.667094871836399e+01 5.173926647144979e+00 
  279 -9.053180898819029e+00 4.613943567936168e+00 -1.644921358571538e+01 
  280 -1.871143700270809e+01 1.954438413584109e+01 2.312952265625534e+01 
  281 2.745834498470897e+01 -2.836071689440014e+00 -2.049744547635190e+01 
  282 4.826349418379410e-01 8.652568964707950e+00 -6.629845563553927e+00 
  283 2.147388266688356e+01 -2.379392439811444e+00 1.462114931663361e+01 
  284 -1.960981925837745e+01 -7.135501382824189e+00 1.737029378244763e+01 
  285 1.203434951290248e+01 -1.464593950729280e+01 -3.524980094982671e+01 
  286 1.841690766257896e+01 -1.672134623759163e+01 3.750048130002493e+01 
  287 7.386780840893728e+00 7.098896415263341e+00 1.641629034199966e+01 
  288 -1.031774075919883e+01 -2.477965277615604e+01 -1.778632863206343e+01 
  289 -5.576039307092758e+01 -8.131441424570312e+00 -4.710149413327576e+01 
  290 8.535515657795209e+00 -4.394859001249756e+00 4.951189426277529e+01 
  291 2.593849586270716e+01 -1.159779267838228e+01 -2.912978449186998e+01 
  292 4.877349753011554e+00 -1.879557827580944e+00 2.443879502197560e+01 
  293 3.416642221650210e+00 -2.188981626286673e+01 -2.212320667829124e+00 
  294 3.287942763479679e+01 1.033597812216493e+01 2.160308343877708e+01 
  295 -2.477100483134338e+01 1.582806450897811e+01 -2.483150829016780e+00 
  296 -1.827658846625395e+01 1.748971992058147e+00 9.763258200191942e+00 
  297 -1.558764930288773e+01 -4.361640068402060e+00 -1.925513716285287e+01 
  298 -2.475161976357574e+01 1.740974393275591e+00 2.205668291123071e+01 
  299 -1.466303559352917e+01 -3.393325456258989e+00 1.039975896970717e+01 
  300 -1.732074556187119e+00 2.113488409775737e+00 -1.160432701079152e+00 
  301 2.495746803617532e+01 2.282973599112475e+00 -3.363058067455142e+01 
  302 2.055500155843431e+01 2.178739192996067e+01 3.958709911455070e+01 
  303 1.335713980313643e+00 4.624495840991444e+01 -3.883088218594784e+01 
  304 2.662958284768844e+01 2.480918043598965e+01 -3.325709337205964e+01 
  305 -2.761894759002514e+00 -2.281303352535121e+01 -2.095215918043183e+01 
  306 -8.382155126488865e+00 -1.582290692965640e+01 1.494892290629636e+01 
  307 1.300441131723687e+01 2.172425926837624e+01 1.770099303090231e+00 
  308 -4.957157136105518e+01 -1.575549113552086e+01 9.610528503861683e+01 
  309 2.348912441794219e+01 -4.492060195855816e+00 -7.565434174037232e+00 
  310 -2.072606519478808e+01 -2.243272676374055e+01 -1.286938351304341e+01 
  311 -1.256798339595276e+01 2.648618452682796e+01 1.200200216555892e+01 
  312 3.300556683912254e+01 1.462829781577786e+01 -2.929583580337491e+01 
  313 -4.534855798353035e+01 -1.247670788512905e+01 -2.549414164078043e+01 
  314 9.209296496051504e+00 -6.889575747851122e-01 1.704863257029024e+01 
  315 1.786905285193205e+01 1.055097573443072e+01 3.610160294761541e-01 
  316 -2.657868546289154e+01 3.541277474901788e+01 3.741485095740625e+01 
  317 1.695619671278609e+01 -2.571225564280524e+01 -1.062740806923146e+01 
  318 -1.195197588038666e+01 1.143681074451910e+01 -2.194760845163907e+01 
  319 1.062822410623048e+01 -3.483312301847468e+01 8.057884546148578e+00 
  320 -1.788148596254745e+01 2.627653486576490e+01 2.625492450460050e+01 
  321 2.944093038868937e+01 -9.686003652344326e+00 -1.335075606018400e+01 
  322 -4.649805381810352e+00 1.044864790989786e+01 -2.536804834766690e+01 
  323 9.153252999920317e+00 2.675152325075183e+00 -7.252127668463237e+00 
  324 5.184306056177762e+00 -5.584463872414475e+00 2.734976646382227e+00 
  325 -1.170370617383365e+00 2.636652674485266e+01 1.912764188714713e+01 
  326 2.590407414983073e+01 1.208243483901597e+01 1.033378703920323e+01 
  327 -1.098374875925586e+01 -1.279378489707602e+01 -7.590590505866805e+00 
  328 -7.141733128370471e+00 4.055745611580672e+01 -3.227837903634599e+01 
  329 -8.858237077651491e+00 -2.449799769943329e+01 1.052463077662674e+01 
  330 2.249964597309776e+01 -3.630996732790442e+01 -9.637825236943771e+00 
  331 -1.354524485399156e+01 -2.394363322425260e+01 3.143180810572831e-01 
  332 -2.877202378716639e-01 -1.507082138991508e+01 1.413505645387926e+01 
  333 -1.058632353516297e+00 9.035343177012436e+00 -6.805285082877283e+00 
  334 -4.459256006962694e+01 -9.169222875607472e+00 -2.690213909439618e+01 
  335 2.656000704485707e+01 9.494519361815655e+00 1.204692899101462e+01 
  336 -2.448763308574835e+01 3.645747561829816e+01 -5.741207206065774e+00 
  337 7.258791555193688e+00 -5.593993661703876e+00 1.864115656353056e+01 
  338 2.183029532690665e+01 -7.803459896382584e+00 -1.021764523298047e+01 
  339 -6.247409064965225e+00 1.129857820781855e+01 3.440052094246284e+00 
  340 -3.276439465041314e+01 5.660027992541873e+00 4.695761507689386e+00 
  341 3.722432524286135e+01 1.380793213966215e+01 1.864998349361655e+01 
  342 3.214005364737204e+01 1.890574213959938e+01 3.773492721421184e+00 
  343 -2.459389950301970e+01 5.152324602207299e+00 8.456373267397016e+00 
  344 -1.134037983910555e+01 -1.953165533253653e+01 -1.296659137693883e+01 
  345 -6.639526517194036e+00 2.309827054865738e+00 7.937936552504573e+00 
  346 -2.383565865981723e+01 2.931578430616024e+00 -4.688132009557911e+01 
  347 -5.617138045689218e+00 -1.937036562773480e+01 1.667892005247750e+01 
  348 4.769419558930812e+01 2.518211795552130e+00 2.291566292280728e+01 
  349 1.874468320763551e+00 -2.751872603065329e+01 3.826433842203252e+01 
  350 2.446486725524215e+01 -8.183181219257559e+00 5.339242491081524e+00 
  351 -9.623943431917262e+00 2.158413232468163e+01 -4.895340515901238e+01 
  352 6.264018784416278e+00 1.456862340903271e-01 1.920228290834698e+01 
  353 -5.570717717594331e+00 2.749242301258687e+00 9.586476644292178e+00 
  354 -5.481964569597347e+00 -1.798404963460735e+01 9.618556800803198e+00 
  355 3.661723696694963e-01 -2.469552810709339e+00 -1.092637157884831e+01 
  356 5.063556189900498e+01 7.175145991413952e+00 1.211806824584247e+01 
  357 -2.888975216965946e+01 2.331103993429300e+01 -1.168479640809411e+00 
  358 3.978681795449652e+01 2.921737036459303e+01 -3.702331342185450e+01 
  359 -4.361041303060278e+01 -5.395841161909692e+00 1.276394192193051e+01 
  360 -1.693166441358083e+01 4.006831106948201e+01 2.114917713479564e+01 
  361 4.380984601469667e+01 -6.756175338398080e+00 -1.754540485146606e+01 
  362 -1.926104866430788e+00 -3.582382231494727e+01 3.579338469417726e+01 
  363 -5.335938282162877e+01 -1.917959615550996e+01 2.015765172348204e+01 
  364 1.319088522391922e+01 -9.341749416773331e+00 -3.997156492136208e+00 
  365 -1.459627643800294e+01 2.286041867143370e+01 2.104787878119629e+01 
  366 3.057373559756199e+00 -1.132282273032705e+01 -5.525408807746431e+00 
  367 4.168684430927502e-01 -2.326898179862531e+00 2.233339773842793e+00 
  368 -6.232339033469491e+00 -6.348832363125769e+00 -2.534076648997698e+01 
  369 -6.842522593729615e+00 -6.983510410876110e+00 1.076897339207640e+01 
  370 -6.854653621159982e-01 1.241986336512862e+01 -1.764433351813442e+00 
  371 1.052441635447079e+01 1.250730629696760e+01 -9.009750043651430e+00 
  372 2.087150691988616e+00 1.870801880408358e+01 -3.265379148990444e+00 
  373 5.067246311319720e+01 -5.039991016181115e+01 7.014325375352203e+01 
  374 -1.253654499570167e+01 1.574797668626632e+01 -5.854184588413096e+01 
  375 -1.018603989210410e+01 4.153904268155601e+01 -1.936906110338506e+01 
  376 5.539038123709757e+01 -9.922507044159495e+00 -5.463143375998801e+01 
  377 -2.144106963745792e+01 -2.148174654756533e+01 4.975069387622889e+01 
  378 -3.568430762127477e+01 9.323363261036612e+00 -6.092234941164067e-01 
  379 -3.286620328278550e+01 1.246775020624707e+01 -1.211811883540581e+01 
  380 2.060691740156257e+01 5.426674418675567e+00 1.967538477539377e+00 
  381 1.729691718111100e+01 2.168354248147415e+01 -3.063762228937400e+01 
  382 -1.551171237216796e+01 5.128711875446946e+00 7.389303644705148e+00 
  383 -1.063654969093628e+00 -1.312749337162182e+01 3.906576290437221e+00 
  384 4.744602290123451e+01 -3.709334611345105e+01 -6.352698286353339e+00 
  385 -3.033633335276241e+00 -9.631915818917619e+00 3.116462745645298e-01 
  386 -4.038486918608952e+01 3.650403981398302e+01 3.905336023100047e+01 
  387 -2.793634303607979e+01 -4.868272620292397e+01 -3.853452624139310e+01 
  388 -7.522265408087111e+01 6.651574194582733e+01 -1.381564967723329e+01 
  389 -5.108245337618042e+01 4.472206807753146e+01 -2.822872382864316e+01 
  390 2.616178963425734e+01 -3.638954865449576e+01 1.023749078956875e+01 
  391 2.733980845369929e+01 7.885265078601341e+00 3.351217361891158e+01 
  392 -1.107930247086722e+00 -1.270233542097753e+01 -6.823178842024050e+00 
  393 -1.039165213244873e+01 -3.712029357041264e+01 -3.909640198623274e+00 
  394 -4.518957842055787e+00 3.303078512973281e+00 -7.157081397271811e+00 
  395 9.753398766267457e+00 -9.733297082360033e-01 -4.237440899926297e+00 
  396 -1.681436916644470e+01 3.048287854212989e+01 9.168002848282835e-01 
  397 -4.314409243258648e+01 1.950630153532497e+01 -2.014086226491805e+01 
  398 2.707574197204599e+01 -2.456793857267004e+01 4.668490383033009e+01 
  399 -1.778287046213578e+01 -2.231610670530314e+01 1.874074924216112e+01 
  400 -2.466132943870929e+01 2.181678010399573e+01 -1.635866106464962e+01 