LAMMPS (12 Oct 2011)
Scanning data file ...
  4 = max bonds/atom
  6 = max angles/atom
  19 = max dihedrals/atom
Reading data file ...
  orthogonal box = (19.271 51.739 92.817) to (24.695 56.5 98.493)
  1 by 1 by 1 processor grid
  24 atoms
  24 bonds
  42 angles
  95 dihedrals
Finding 1-2 1-3 1-4 neighbors ...
  4 = max # of 1-2 neighbors
  7 = max # of 1-3 neighbors
  16 = max # of 1-4 neighbors
  18 = max # of special neighbors
WARNING: No fixes defined, atoms won't move (verlet.cpp:52)
Setting up run ...
Memory usage per processor = 0.96405 Mbytes
---------------- Step        0 ----- CPU =      0.0000 (sec) ----------------
PotEng   = 1.077962417003472e+02 E_bond   = 1.821788528098264e+00 E_angle  = 2.350951096626950e+00 
E_dihed  = 2.892190221938166e+01 E_impro  = 0.000000000000000e+00 E_vdwl   = 3.390668948327059e+00 
E_coul   = 7.131093090791320e+01 
Loop time of 1.90735e-06 on 1 procs for 0 steps with 24 atoms

Pair  time (%) = 0 (0)
Bond  time (%) = 0 (0)
Neigh time (%) = 0 (0)
Comm  time (%) = 0 (0)
Outpt time (%) = 0 (0)
Other time (%) = 1.90735e-06 (100)

Nlocal:    24 ave 24 max 24 min
Histogram: 1 0 0 0 0 0 0 0 0 0
Nghost:    0 ave 0 max 0 min
Histogram: 1 0 0 0 0 0 0 0 0 0
Neighs:    147 ave 147 max 147 min
Histogram: 1 0 0 0 0 0 0 0 0 0

Total # of neighbors = 147
Ave neighs/atom = 6.125
Ave special neighs/atom = 10.75
Neighbor list builds = 0
Dangerous builds = 0
