ITEM: TIMESTEP
0
ITEM: NUMBER OF ATOMS
24
ITEM: BOX BOUNDS ss ss ss
19.2709 24.6951
51.7389 56.5001
92.8169 98.4931
ITEM: ATOMS id fx fy fz 
    1 -1.316913462631318e-01 -6.045526629757224e-01 2.528175640502856e-01 
    2 -1.091780088986666e-01 1.633300024536686e-01 -8.333369998615203e-02 
    3 4.091833701923921e-01 2.711356093971153e-01 2.173003625182736e-01 
    4 1.453844877044424e-02 1.073625109506247e-01 -2.444377155690813e-02 
    5 -1.643406112944781e-01 -4.137245118669014e-01 6.704961451737463e-01 
    6 6.169011176118921e-02 1.969650418545849e-01 -1.531027627243514e-01 
    7 -3.031934288875515e-01 2.369273639267769e-01 1.761028961041091e-01 
    8 6.238214673992575e-01 4.208478089389738e-01 -1.790225729970642e-01 
    9 -9.150824175342465e-02 7.288500948522730e-02 4.038515448728464e-02 
   10 -4.282994977788441e-01 -8.404082285216963e-01 -2.132825137570502e-02 
   11 1.280110163540971e-01 2.066500767766819e-01 -3.068121120704512e-01 
   12 -4.292730800604699e-01 -3.820785612616435e-02 -2.025027384901939e-01 
   13 -6.217313500077731e-02 1.044471421127572e-01 9.030043832693069e-02 
   14 -1.842414887121269e-01 -1.592179494737085e-01 -1.095097291851621e-01 
   15 3.387858727087034e-01 1.445695384099193e-01 5.923933890130056e-03 
   16 -1.029007388269492e-01 2.002610599598282e-01 -3.417315581448474e-01 
   17 -1.398917004275591e-02 -2.100370024112707e-01 1.108730849713193e-01 
   18 6.498636388578518e-01 3.866086005911856e-01 9.628297504832511e-02 
   19 -1.970577583990143e-01 -3.120743233058784e-01 -5.283816281410691e-02 
   20 -2.279999152517143e-01 2.622354468809822e-01 -6.424403843285725e-01 
   21 8.099112492771243e-02 1.420802140998878e-02 5.505820343515661e-02 
   22 -9.279690732698409e-02 -1.470315733065233e-01 3.562846666353539e-01 
   23 7.751706776715130e-01 -1.728627415636652e-02 -3.474321969898003e-02 
   24 -5.434124001462725e-01 -4.589285100407881e-02 7.998353873157460e-02 
