ITEM: TIMESTEP
0
ITEM: NUMBER OF ATOMS
2
ITEM: BOX BOUNDS ss ss ss
-0.0001 10.0001
-0.0001 0.0001
-0.0001 0.0001
ITEM: ATOMS id fx fy fz 
    1 3.320868275835215e+00 0.000000000000000e+00 0.000000000000000e+00 
    2 -3.320868275835215e+00 0.000000000000000e+00 0.000000000000000e+00 
