Created by charmm2lammps v1.8.2.5 beta on Sun Nov 20 20:52:53 EST 2011

          33  atoms
          32  bonds
          57  angles
          76  dihedrals
           5  impropers

          12  atom types
          12  bond types
          24  angle types
          32  dihedral types
           3  improper types

      -0.805        9.342 xlo xhi
      -1.782        6.119 ylo yhi
      -2.382        2.395 zlo zhi

Masses

       1      1.008
       2      1.008
       3      1.008
       4      1.008
       5     12.011
       6     12.011
       7     12.011
       8     12.011
       9     14.007
      10     14.007
      11     15.999
      12     15.999

Pair Coeffs

       1      0.046  0.4000135      0.046  0.4000135
       2      0.046  0.4000135      0.046  0.4000135
       3      0.022   2.351973      0.022   2.351973
       4      0.022   2.351973      0.022   2.351973
       5       0.11   3.563595       0.11   3.563595
       6       0.02   4.053589       0.01   3.385415
       7       0.08   3.670503       0.01   3.385415
       8       0.07   3.563595       0.07   3.563595
       9        0.2   3.296325        0.2   2.761786
      10        0.2   3.296325        0.2   3.296325
      11       0.12   3.029056       0.12   2.494516
      12       0.12   3.029056       0.12   3.029056

Atoms

       1       1    10      -0.3       0.024      -0.103      -0.101
       2       1     2      0.33       0.027      -1.132      -0.239
       3       1     2      0.33      -0.805       0.163       0.471
       4       1     2      0.33      -0.059       0.384      -1.019
       5       1     6      0.21       1.247       0.375       0.636
       6       1     4       0.1       0.814       0.861       1.495
       7       1     7     -0.27       2.057      -0.772       1.289
       8       1     3      0.09       3.136      -0.752       1.032
       9       1     3      0.09        1.99      -0.641       2.395
      10       1     3      0.09       1.656      -1.782       1.063
      11       1     5      0.51       1.956       1.579       0.036
      12       1    11     -0.51       1.219       2.525      -0.201
      13       2     9     -0.47       3.289       1.631      -0.202
      14       2     1      0.31       3.939       0.868      -0.174
      15       2     6      0.07        3.99       2.909      -0.215
      16       2     4      0.09       3.742        3.44       0.695
      17       2     7     -0.27       3.662       3.802      -1.434
      18       2     3      0.09       4.192       4.778      -1.358
      19       2     3      0.09       3.956       3.311      -2.382
      20       2     3      0.09       2.577       4.027      -1.467
      21       2     5      0.51       5.487       2.654      -0.128
      22       2    11     -0.51       5.889       1.489      -0.137
      23       3     9     -0.47       6.275       3.733      -0.037
      24       3     1      0.31       5.963       4.691      -0.028
      25       3     6      0.07       7.707       3.802       0.068
      26       3     4      0.09        8.16       3.418      -0.833
      27       3     7     -0.27       8.233       3.093       1.333
      28       3     3      0.09       9.342       3.149       1.356
      29       3     3      0.09       7.835       3.593        2.24
      30       3     3      0.09       7.923        2.03       1.332
      31       3     8      0.34       8.018       5.323       0.136
      32       3    12     -0.67       7.032       6.119       0.127
      33       3    12     -0.67       9.219       5.692       0.188

Bond Coeffs

       1        250       1.49
       2        370      1.345
       3        620       1.23
       4        200      1.522
       5        525       1.26
       6      222.5      1.538
       7        330       1.08
       8        320       1.43
       9        200       1.48
      10        322      1.111
      11        440      0.997
      12        403       1.04

Bonds

       1      12       2       1
       2      12       3       1
       3      12       4       1
       4       6       7       5
       5       9       1       5
       6       1      11       5
       7       2      11      13
       8       7       5       6
       9      10       7       8
      10      10       7       9
      11      10       7      10
      12       3      12      11
      13       6      17      15
      14      11      13      14
      15       8      13      15
      16       1      21      15
      17       2      21      23
      18       7      15      16
      19      10      17      18
      20      10      17      19
      21      10      17      20
      22       3      22      21
      23       6      27      25
      24      11      23      24
      25       8      23      25
      26       4      31      25
      27       7      25      26
      28      10      27      28
      29      10      27      29
      30      10      27      30
      31       5      31      33
      32       5      31      32

Angle Coeffs

       1         52        108          0          0
       2         50      109.5          0          0
       3         50        107          0          0
       4       43.7        110          0          0
       5         50        120          0          0
       6         34        123          0          0
       7         52        108          0          0
       8         50      109.5          0          0
       9         50        107          0          0
      10         80      116.5          0          0
      11         80        121          0          0
      12         40        118         50      2.388
      13      33.43      110.1      22.53      2.179
      14         35        117          0          0
      15         30      109.5         20      2.074
      16         35        111          0          0
      17         70      113.5          0          0
      18       67.7        110          0          0
      19       35.5      108.4        5.4      1.802
      20         48        108          0          0
      21       51.5      107.5          0          0
      22         44      109.5          0          0
      23         80      122.5          0          0
      24        100        124         70      2.225

Angles

       1      22       2       1       3
       2      22       2       1       4
       3      15       2       1       5
       4      22       3       1       4
       5      15       3       1       5
       6      15       4       1       5
       7      21       1       5       6
       8      18       1       5       7
       9       4       1       5      11
      10      16       6       5       7
      11       2       6       5      11
      12       1       7       5      11
      13      13       5       7       8
      14      13       5       7       9
      15      13       5       7      10
      16      19       8       7       9
      17      19       8       7      10
      18      19       9       7      10
      19      11       5      11      12
      20      10       5      11      13
      21      23      12      11      13
      22       6      11      13      14
      23       5      11      13      15
      24      14      14      13      15
      25      20      13      15      16
      26      17      13      15      17
      27       3      13      15      21
      28      16      16      15      17
      29       2      16      15      21
      30       1      17      15      21
      31      13      15      17      18
      32      13      15      17      19
      33      13      15      17      20
      34      19      18      17      19
      35      19      18      17      20
      36      19      19      17      20
      37      11      15      21      22
      38      10      15      21      23
      39      23      22      21      23
      40       6      21      23      24
      41       5      21      23      25
      42      14      24      23      25
      43      20      23      25      26
      44      17      23      25      27
      45       9      23      25      31
      46      16      26      25      27
      47       8      26      25      31
      48       7      27      25      31
      49      13      25      27      28
      50      13      25      27      29
      51      13      25      27      30
      52      19      28      27      29
      53      19      28      27      30
      54      19      29      27      30
      55      12      25      31      32
      56      12      25      31      33
      57      24      32      31      33

Dihedral Coeffs

       1        0.2          3          0          1
       2        0.2          1        180          1
       3          0          1          0          1
       4        0.1          3          0          1
       5        0.2          1        180          1
       6        1.8          1          0          1
       7          0          1          0          1
       8        0.2          3          0          1
       9          0          1          0          1
      10        1.6          1          0          1
      11        2.5          2        180          0
      12        2.5          2        180          1
      13        2.5          2        180          1
      14          0          1          0          1
      15        1.4          1          0          1
      16       0.05          6        180          1
      17          0          1          0          1
      18        0.1          3          0          1
      19        2.5          2        180          1
      20          0          1          0          1
      21        0.2          3          0          1
      22        0.2          3          0          1
      23        0.2          3          0          1
      24          0          1          0          1
      25          0          1          0          1
      26       0.05          6        180          1
      27        0.1          3          0          1
      28        0.6          1          0          1
      29        0.6          1          0          1
      30          0          1          0          1
      31       0.05          6        180          1
      32          0          1          0          1

Dihedrals

       1      23       1       5       7       8
       2      23       1       5       7       9
       3      23       1       5       7      10
       4      32       1       5      11      12
       5      29       1       5      11      13
       6      27       2       1       5       6
       7      18       2       1       5       7
       8       4       2       1       5      11
       9      27       3       1       5       6
      10      18       3       1       5       7
      11       4       3       1       5      11
      12      27       4       1       5       6
      13      18       4       1       5       7
      14       4       4       1       5      11
      15      12       5      11      13      14
      16      10       5      11      13      15
      17      11       5      11      13      15
      18      21       6       5       7       8
      19      21       6       5       7       9
      20      21       6       5       7      10
      21      25       6       5      11      12
      22      24       6       5      11      13
      23      15       7       5      11      12
      24      14       7       5      11      13
      25       1       8       7       5      11
      26       1       9       7       5      11
      27       1      10       7       5      11
      28       7      11      13      15      16
      29       6      11      13      15      17
      30       2      11      13      15      21
      31      19      12      11      13      14
      32      13      12      11      13      15
      33      22      13      15      17      18
      34      22      13      15      17      19
      35      22      13      15      17      20
      36      30      13      15      21      22
      37      28      13      15      21      23
      38      20      14      13      15      16
      39      17      14      13      15      17
      40       3      14      13      15      21
      41      12      15      21      23      24
      42      10      15      21      23      25
      43      11      15      21      23      25
      44      21      16      15      17      18
      45      21      16      15      17      19
      46      21      16      15      17      20
      47      25      16      15      21      22
      48      24      16      15      21      23
      49      15      17      15      21      22
      50      14      17      15      21      23
      51       1      18      17      15      21
      52       1      19      17      15      21
      53       1      20      17      15      21
      54       7      21      23      25      26
      55       6      21      23      25      27
      56       5      21      23      25      31
      57      19      22      21      23      24
      58      13      22      21      23      25
      59      22      23      25      27      28
      60      22      23      25      27      29
      61      22      23      25      27      30
      62      31      23      25      31      32
      63      31      23      25      31      33
      64      20      24      23      25      26
      65      17      24      23      25      27
      66       9      24      23      25      31
      67      21      26      25      27      28
      68      21      26      25      27      29
      69      21      26      25      27      30
      70      26      26      25      31      32
      71      26      26      25      31      33
      72      16      27      25      31      32
      73      16      27      25      31      33
      74       8      28      27      25      31
      75       8      29      27      25      31
      76       8      30      27      25      31

Improper Coeffs

       1        120          0
       2         96          0
       3         20          0

Impropers

       1       1      11       5      13      12
       2       3      13      11      15      14
       3       1      21      15      23      22
       4       3      23      21      25      24
       5       2      31      25      33      32

